ITEM: TIMESTEP 
0
ITEM: NUMBER OF ATOMS
64
ITEM: BOX BOUNDS
-5.000000 5.000000
-5.000000 5.000000
-5.000000 5.000000
ITEM: ATOMS id type x y z ix iy iz
1 1 3.750000 3.750000 3.750000 0 0 0
2 2 1.250000 3.750000 3.750000 0 0 0
3 3 -1.250000 3.750000 3.750000 0 0 0
4 4 -3.750000 3.750000 3.750000 0 0 0
5 5 3.750000 1.250000 3.750000 0 0 0
6 6 1.250000 1.250000 3.750000 0 0 0
7 7 -1.250000 1.250000 3.750000 0 0 0
8 8 -3.750000 1.250000 3.750000 0 0 0
9 9 3.750000 -1.250000 3.750000 0 0 0
10 10 1.250000 -1.250000 3.750000 0 0 0
11 11 -1.250000 -1.250000 3.750000 0 0 0
12 12 -3.750000 -1.250000 3.750000 0 0 0
13 13 3.750000 -3.750000 3.750000 0 0 0
14 14 1.250000 -3.750000 3.750000 0 0 0
15 15 -1.250000 -3.750000 3.750000 0 0 0
16 16 -3.750000 -3.750000 3.750000 0 0 0
17 17 3.750000 3.750000 1.250000 0 0 0
18 18 1.250000 3.750000 1.250000 0 0 0
19 19 -1.250000 3.750000 1.250000 0 0 0
20 20 -3.750000 3.750000 1.250000 0 0 0
21 21 3.750000 1.250000 1.250000 0 0 0
22 22 1.250000 1.250000 1.250000 0 0 0
23 23 -1.250000 1.250000 1.250000 0 0 0
24 24 -3.750000 1.250000 1.250000 0 0 0
25 25 3.750000 -1.250000 1.250000 0 0 0
26 26 1.250000 -1.250000 1.250000 0 0 0
27 27 -1.250000 -1.250000 1.250000 0 0 0
28 28 -3.750000 -1.250000 1.250000 0 0 0
29 29 3.750000 -3.750000 1.250000 0 0 0
30 30 1.250000 -3.750000 1.250000 0 0 0
31 31 -1.250000 -3.750000 1.250000 0 0 0
32 32 -3.750000 -3.750000 1.250000 0 0 0
33 33 3.750000 3.750000 -1.250000 0 0 0
34 34 1.250000 3.750000 -1.250000 0 0 0
35 35 -1.250000 3.750000 -1.250000 0 0 0
36 36 -3.750000 3.750000 -1.250000 0 0 0
37 37 3.750000 1.250000 -1.250000 0 0 0
38 38 1.250000 1.250000 -1.250000 0 0 0
39 39 -1.250000 1.250000 -1.250000 0 0 0
40 40 -3.750000 1.250000 -1.250000 0 0 0
41 41 3.750000 -1.250000 -1.250000 0 0 0
42 42 1.250000 -1.250000 -1.250000 0 0 0
43 43 -1.250000 -1.250000 -1.250000 0 0 0
44 44 -3.750000 -1.250000 -1.250000 0 0 0
45 45 3.750000 -3.750000 -1.250000 0 0 0
46 46 1.250000 -3.750000 -1.250000 0 0 0
47 47 -1.250000 -3.750000 -1.250000 0 0 0
48 48 -3.750000 -3.750000 -1.250000 0 0 0
49 49 3.750000 3.750000 -3.750000 0 0 0
50 50 1.250000 3.750000 -3.750000 0 0 0
51 51 -1.250000 3.750000 -3.750000 0 0 0
52 52 -3.750000 3.750000 -3.750000 0 0 0
53 53 3.750000 1.250000 -3.750000 0 0 0
54 54 1.250000 1.250000 -3.750000 0 0 0
55 55 -1.250000 1.250000 -3.750000 0 0 0
56 56 -3.750000 1.250000 -3.750000 0 0 0
57 57 3.750000 -1.250000 -3.750000 0 0 0
58 58 1.250000 -1.250000 -3.750000 0 0 0
59 59 -1.250000 -1.250000 -3.750000 0 0 0
60 60 -3.750000 -1.250000 -3.750000 0 0 0
61 61 3.750000 -3.750000 -3.750000 0 0 0
62 62 1.250000 -3.750000 -3.750000 0 0 0
63 63 -1.250000 -3.750000 -3.750000 0 0 0
64 64 -3.750000 -3.750000 -3.750000 0 0 0
ITEM: TIMESTEP 
1
ITEM: NUMBER OF ATOMS
64
ITEM: BOX BOUNDS
-5.000000 5.000000
-5.000000 5.000000
-5.000000 5.000000
ITEM: ATOMS id type x y z ix iy iz
1 1 -4.993737 -3.385157 -3.130691 0 0 0
2 2 -0.018374 -2.885592 -2.525730 0 0 0
3 3 0.069756 -3.532910 -4.753411 0 0 0
4 4 1.083499 -2.937179 -2.723143 0 0 0
5 5 3.614061 -2.844454 -4.467587 0 0 0
6 6 3.705327 -2.935469 -3.394938 0 0 0
7 7 -0.082304 -1.412511 -2.805073 0 0 0
8 8 1.095365 -1.532920 -2.705897 0 0 0
9 9 3.482444 -1.695817 -3.994550 0 0 0
10 10 -3.731265 1.518495 -3.980034 0 0 0
11 11 -4.015373 0.407181 -3.634277 0 0 0
12 12 -2.170305 2.453583 -4.768434 0 0 0
13 13 2.453419 2.068333 -4.331422 0 0 0
14 14 3.763941 2.042421 -4.720787 0 0 0
15 15 4.571349 0.050665 -2.920550 0 0 0
16 16 -3.243766 2.599828 -4.724588 0 0 0
17 17 -4.465557 3.792666 -3.537358 0 0 0
18 18 -1.231298 2.903001 -4.998491 0 0 0
19 19 1.135496 4.865905 -2.599960 0 0 0
20 20 3.282838 3.213451 -4.652191 0 0 0
21 21 4.288095 3.576118 -3.714168 0 0 0
22 22 -1.627862 -2.645658 -1.026663 0 0 0
23 23 2.494916 -4.315247 -0.742667 0 0 0
24 24 3.487592 -4.996686 -0.532269 0 0 0
25 25 -3.402907 -1.947037 -1.436027 0 0 0
26 26 -3.795444 -2.464527 -0.104446 0 0 0
27 27 4.999912 -0.316687 -1.851242 0 0 0
28 28 -2.592267 1.170600 -0.975724 0 0 0
29 29 -1.342593 1.353461 -1.522554 0 0 0
30 30 -0.912342 1.129115 -0.514951 0 0 0
31 31 0.258224 0.417471 -1.769918 0 0 0
32 32 -1.548405 3.508506 -1.452737 0 0 0
33 33 -0.926124 2.731710 -0.167071 0 0 0
34 34 -4.305891 -3.378700 0.280284 0 0 0
35 35 -2.156898 -3.271496 2.228416 0 0 0
36 36 4.209071 -3.932087 2.363258 0 0 0
37 37 -1.785458 -2.499459 0.031433 0 0 0
38 38 2.429448 -1.367997 0.195032 0 0 0
39 39 3.750000 -1.250000 0.024033 0 0 0
40 40 4.581361 -2.471498 2.320021 0 0 0
41 41 -4.337788 1.709124 2.475137 0 0 0
42 42 1.960402 0.705596 1.239742 0 0 0
43 43 1.421822 0.230429 2.046230 0 0 0
44 44 2.966622 1.089150 1.119978 0 0 0
45 45 -4.839777 3.186545 0.495870 0 0 0
46 46 2.493087 4.325045 0.142836 0 0 0
47 47 3.705560 3.834499 0.071066 0 0 0
48 48 4.349093 3.380113 1.402816 0 0 0
49 49 -4.361897 -2.515251 3.084224 0 0 0
50 50 -4.629136 -4.413337 3.975636 0 0 0
51 51 -0.449209 -4.270468 4.517761 0 0 0
52 52 1.265787 -4.697246 3.494747 0 0 0
53 53 -3.099548 -2.439520 2.895080 0 0 0
54 54 -3.431788 -1.922480 4.004260 0 0 0
55 55 -0.090492 -1.589616 3.689051 0 0 0
56 56 -1.068105 -1.225378 4.179988 0 0 0
57 57 0.025425 -0.802584 2.856467 0 0 0
58 58 0.111557 -2.385972 4.998861 0 0 0
59 59 -0.764085 1.602909 3.220942 0 0 0
60 60 4.893577 0.889712 2.523262 0 0 0
61 61 -2.810605 3.115814 2.897588 0 0 0
62 62 -1.404460 2.597524 2.878730 0 0 0
63 63 1.062255 4.560502 2.664371 0 0 0
64 64 2.392399 3.713361 4.995529 0 0 0
ITEM: TIMESTEP 
2
ITEM: NUMBER OF ATOMS
64
ITEM: BOX BOUNDS
-5.000000 5.000000
-5.000000 5.000000
-5.000000 5.000000
ITEM: ATOMS id type x y z ix iy iz
1 1 -4.993737 -3.385157 -3.659844 0 0 0
2 2 -0.018374 -2.885592 -3.054883 0 0 0
3 3 1.083499 -2.937179 -3.252296 0 0 0
4 4 3.614061 -2.844454 -4.996740 0 0 0
5 5 3.408349 -2.661566 -3.862483 0 0 0
6 6 -0.082304 -1.412511 -3.334226 0 0 0
7 7 1.095365 -1.532920 -3.235050 0 0 0
8 8 3.482444 -1.695817 -4.523703 0 0 0
9 9 -3.883804 0.145333 -3.265427 0 0 0
10 10 -2.856714 2.208665 -4.211749 0 0 0
11 11 2.453419 2.068333 -4.860575 0 0 0
12 12 4.571349 0.050665 -3.449703 0 0 0
13 13 -4.055845 3.073007 -4.480424 0 0 0
14 14 1.551436 4.571566 -4.638727 0 0 0
15 15 4.288095 3.576118 -4.243321 0 0 0
16 16 -4.305891 -3.378700 -0.248869 0 0 0
17 17 -1.729172 -2.773095 -1.570038 0 0 0
18 18 2.462529 -4.497527 -1.126476 0 0 0
19 19 3.487592 -4.996686 -1.061422 0 0 0
20 20 -3.795444 -2.464527 -0.633598 0 0 0
21 21 -2.751579 -2.165632 -2.105196 0 0 0
22 22 -1.785458 -2.499459 -0.497720 0 0 0
23 23 1.834955 -0.107288 -0.108067 0 0 0
24 24 4.999912 -0.316687 -2.380395 0 0 0
25 25 3.750000 -1.250000 -0.505119 0 0 0
26 26 -2.592267 1.170600 -1.504877 0 0 0
27 27 -0.885360 0.925690 -1.064305 0 0 0
28 28 -1.367341 1.455609 -1.898455 0 0 0
29 29 0.038357 0.649683 -1.655029 0 0 0
30 30 -4.839777 3.186545 -0.033283 0 0 0
31 31 -1.544522 3.657259 -0.971515 0 0 0
32 32 -0.926124 2.731710 -0.696224 0 0 0
33 33 2.432087 4.661256 -0.297816 0 0 0
34 34 3.705560 3.834499 -0.458087 0 0 0
35 35 -2.156898 -3.271496 1.699263 0 0 0
36 36 4.447202 -3.764370 1.853581 0 0 0
37 37 -3.099548 -2.439520 2.365928 0 0 0
38 38 0.025425 -0.802584 2.327314 0 0 0
39 39 4.581361 -2.471498 1.790869 0 0 0
40 40 -4.337788 1.709124 1.945984 0 0 0
41 41 1.421822 0.230429 1.517077 0 0 0
42 42 1.960402 0.705596 0.710589 0 0 0
43 43 2.567356 0.546186 1.670846 0 0 0
44 44 4.893577 0.889712 1.994109 0 0 0
45 45 -2.632707 3.184255 2.010761 0 0 0
46 46 1.062255 4.560502 2.135218 0 0 0
47 47 4.625786 3.576437 0.875077 0 0 0
48 48 -4.361897 -2.515251 2.555071 0 0 0
49 49 -4.629136 -4.413337 3.446483 0 0 0
50 50 -0.449209 -4.270468 3.988608 0 0 0
51 51 0.545173 -4.642144 3.323511 0 0 0
52 52 0.069756 -3.532910 4.717436 0 0 0
53 53 -3.276608 -2.119595 3.523318 0 0 0
54 54 -0.090492 -1.589616 3.159899 0 0 0
55 55 -1.068105 -1.225378 3.650835 0 0 0
56 56 0.311780 -2.439570 3.732215 0 0 0
57 57 -1.515314 1.756658 4.349502 0 0 0
58 58 -2.170305 2.453583 4.702414 0 0 0
59 59 3.763941 2.042421 4.750060 0 0 0
60 60 -3.243766 2.599828 4.746259 0 0 0
61 61 -1.739357 3.065883 2.686678 0 0 0
62 62 -1.231298 2.903001 4.472356 0 0 0
63 63 2.392399 3.713361 4.466376 0 0 0
64 64 3.282838 3.213451 4.818656 0 0 0
ITEM: TIMESTEP 
3
ITEM: NUMBER OF ATOMS
64
ITEM: BOX BOUNDS
-5.000000 5.000000
-5.000000 5.000000
-5.000000 5.000000
ITEM: ATOMS id type x y z ix iy iz
1 1 -4.799663 -2.816734 -4.372954 0 0 0
2 2 -0.018374 -2.885592 -3.480502 0 0 0
3 3 1.083499 -2.937179 -3.677915 0 0 0
4 4 3.408349 -2.661566 -4.288101 0 0 0
5 5 -0.082304 -1.412511 -3.759845 0 0 0
6 6 1.095365 -1.532920 -3.660669 0 0 0
7 7 3.482444 -1.695817 -4.949322 0 0 0
8 8 4.999912 -0.316687 -2.806014 0 0 0
9 9 -4.372728 0.748484 -3.446539 0 0 0
10 10 -2.856714 2.208665 -4.637368 0 0 0
11 11 4.571349 0.050665 -3.875322 0 0 0
12 12 4.292019 3.145329 -4.917591 0 0 0
13 13 -4.305891 -3.378700 -0.674488 0 0 0
14 14 -1.729172 -2.773095 -1.995657 0 0 0
15 15 -2.431843 -3.076522 -0.017317 0 0 0
16 16 2.462529 -4.497527 -1.552095 0 0 0
17 17 3.487592 -4.996686 -1.487041 0 0 0
18 18 -2.938370 -1.932423 -1.577551 0 0 0
19 19 -3.795444 -2.464527 -1.059217 0 0 0
20 20 -1.768760 -2.252962 -0.996704 0 0 0
21 21 1.834955 -0.107288 -0.533686 0 0 0
22 22 4.525864 -1.834155 -0.560329 0 0 0
23 23 -2.592267 1.170600 -1.930496 0 0 0
24 24 -0.774834 1.957388 -1.947136 0 0 0
25 25 -0.885360 0.925690 -1.489924 0 0 0
26 26 0.038357 0.649683 -2.080648 0 0 0
27 27 -4.839777 3.186545 -0.458902 0 0 0
28 28 -1.544522 3.657259 -1.397134 0 0 0
29 29 -0.926124 2.731710 -1.121842 0 0 0
30 30 2.432087 4.661256 -0.723435 0 0 0
31 31 3.642362 4.321565 -0.506056 0 0 0
32 32 -4.361897 -2.515251 2.129453 0 0 0
33 33 4.487956 -3.551321 1.263136 0 0 0
34 34 -3.099548 -2.439520 1.940309 0 0 0
35 35 0.025425 -0.802584 1.901695 0 0 0
36 36 4.581361 -2.471498 1.365250 0 0 0
37 37 -4.337788 1.709124 1.520366 0 0 0
38 38 1.960402 0.705596 0.284970 0 0 0
39 39 1.421822 0.230429 1.091458 0 0 0
40 40 2.567356 0.546186 1.245228 0 0 0
41 41 4.893577 0.889712 1.568490 0 0 0
42 42 -4.606420 3.121386 1.192924 0 0 0
43 43 0.437004 4.515627 1.694382 0 0 0
44 44 4.625786 3.576437 0.449458 0 0 0
45 45 -3.720275 -3.124466 2.999729 0 0 0
46 46 -0.449209 -4.270468 3.562990 0 0 0
47 47 0.069756 -3.532910 4.291817 0 0 0
48 48 0.545173 -4.642144 2.897892 0 0 0
49 49 3.614061 -2.844454 4.577641 0 0 0
50 50 -3.276608 -2.119595 3.097699 0 0 0
51 51 -0.963610 -0.684973 2.704927 0 0 0
52 52 -0.090492 -1.589616 2.734280 0 0 0
53 53 0.311780 -2.439570 3.306596 0 0 0
54 54 -2.170305 2.453583 4.276795 0 0 0
55 55 -1.586815 1.873689 3.492912 0 0 0
56 56 2.453419 2.068333 4.713807 0 0 0
57 57 3.763941 2.042421 4.324441 0 0 0
58 58 -3.243766 2.599828 4.320640 0 0 0
59 59 -3.329576 3.496569 4.959491 0 0 0
60 60 -1.231298 2.903001 4.046737 0 0 0
61 61 -1.893980 2.969821 2.698683 0 0 0
62 62 2.392399 3.713361 4.040758 0 0 0
63 63 1.369002 3.681351 4.904653 0 0 0
64 64 3.282838 3.213451 4.393038 0 0 0
ITEM: TIMESTEP 
4
ITEM: NUMBER OF ATOMS
64
ITEM: BOX BOUNDS
-5.000000 5.000000
-5.000000 5.000000
-5.000000 5.000000
ITEM: ATOMS id type x y z ix iy iz
1 1 -4.985074 -3.113662 -3.919265 0 0 0
2 2 -0.018374 -2.885592 -3.013607 0 0 0
3 3 1.130248 -2.727641 -3.406374 0 0 0
4 4 3.408349 -2.661566 -3.821206 0 0 0
5 5 3.614061 -2.844454 -4.955464 0 0 0
6 6 -0.160678 -1.981800 -3.795105 0 0 0
7 7 0.848781 -1.535520 -3.661358 0 0 0
8 8 3.482444 -1.695817 -4.482427 0 0 0
9 9 -2.941116 2.239050 -4.220772 0 0 0
10 10 -4.262034 0.619582 -2.978069 0 0 0
11 11 2.384246 2.051632 -4.642656 0 0 0
12 12 4.571349 0.050665 -3.408427 0 0 0
13 13 -3.329576 3.496569 -4.573614 0 0 0
14 14 1.281066 3.179793 -4.806179 0 0 0
15 15 2.400219 3.708589 -4.695002 0 0 0
16 16 3.973836 2.773732 -4.277227 0 0 0
17 17 -1.729172 -2.773095 -1.528762 0 0 0
18 18 2.462529 -4.497527 -1.085200 0 0 0
19 19 3.487592 -4.996686 -1.020145 0 0 0
20 20 -2.938370 -1.932423 -1.110656 0 0 0
21 21 -3.795444 -2.464527 -0.592322 0 0 0
22 22 -2.276193 -2.492286 -0.526149 0 0 0
23 23 1.834955 -0.107288 -0.066791 0 0 0
24 24 4.999954 -2.244222 -0.579868 0 0 0
25 25 4.999912 -0.316687 -2.339118 0 0 0
26 26 -2.592267 1.170600 -1.463601 0 0 0
27 27 -0.885360 0.925690 -1.023029 0 0 0
28 28 -0.774834 1.957388 -1.480241 0 0 0
29 29 0.038357 0.649683 -1.613753 0 0 0
30 30 -0.926124 2.731710 -0.654947 0 0 0
31 31 -1.544522 3.657259 -0.930239 0 0 0
32 32 2.432087 4.661256 -0.256540 0 0 0
33 33 3.642362 4.321565 -0.039161 0 0 0
34 34 -4.271716 -2.883045 0.322015 0 0 0
35 35 -2.431843 -3.076522 0.449578 0 0 0
36 36 4.487956 -3.551321 1.730031 0 0 0
37 37 -3.099548 -2.439520 2.407204 0 0 0
38 38 0.025425 -0.802584 2.368590 0 0 0
39 39 4.581361 -2.471498 1.832145 0 0 0
40 40 -4.727062 2.042307 1.703957 0 0 0
41 41 1.960402 0.705596 0.751865 0 0 0
42 42 1.421822 0.230429 1.558353 0 0 0
43 43 2.567356 0.546186 1.712123 0 0 0
44 44 4.893577 0.889712 2.035385 0 0 0
45 45 -4.606420 3.121386 1.659819 0 0 0
46 46 -4.839777 3.186545 0.007993 0 0 0
47 47 1.265993 4.986283 2.485792 0 0 0
48 48 4.490922 3.182110 0.942410 0 0 0
49 49 -3.720275 -3.124466 3.466624 0 0 0
50 50 -4.361897 -2.515251 2.596348 0 0 0
51 51 -0.396678 -4.237733 3.853638 0 0 0
52 52 0.545173 -4.642144 3.364788 0 0 0
53 53 0.092791 -3.665179 4.665691 0 0 0
54 54 -3.276608 -2.119595 3.564594 0 0 0
55 55 -0.090492 -1.589616 3.201175 0 0 0
56 56 -0.963610 -0.684973 3.171823 0 0 0
57 57 0.311780 -2.439570 3.773491 0 0 0
58 58 -1.586815 1.873689 3.959807 0 0 0
59 59 -2.170305 2.453583 4.743690 0 0 0
60 60 3.215779 2.148255 4.486383 0 0 0
61 61 -3.243766 2.599828 4.787535 0 0 0
62 62 -1.231298 2.903001 4.513632 0 0 0
63 63 -1.393464 3.077376 3.272748 0 0 0
64 64 3.282838 3.213451 4.859933 0 0 0
ITEM: TIMESTEP 
5
ITEM: NUMBER OF ATOMS
64
ITEM: BOX BOUNDS
-5.000000 5.000000
-5.000000 5.000000
-5.000000 5.000000
ITEM: ATOMS id type x y z ix iy iz
1 1 -0.230395 -3.033072 -4.859685 0 0 0
2 2 1.130248 -2.727641 -3.829552 0 0 0
3 3 3.408349 -2.661566 -4.244383 0 0 0
4 4 -0.160678 -1.981800 -4.218283 0 0 0
5 5 0.848781 -1.535520 -4.084535 0 0 0
6 6 3.482444 -1.695817 -4.905604 0 0 0
7 7 4.999912 -0.316687 -2.762296 0 0 0
8 8 -4.573465 0.740524 -3.744545 0 0 0
9 9 -2.941116 2.239050 -4.643950 0 0 0
10 10 4.571349 0.050665 -3.831604 0 0 0
11 11 -3.479860 3.169021 -4.665177 0 0 0
12 12 3.483557 2.757650 -4.523720 0 0 0
13 13 -3.509727 -3.097960 -0.046805 0 0 0
14 14 -2.070647 -3.126365 -1.871898 0 0 0
15 15 -2.494905 -3.416880 -0.397903 0 0 0
16 16 2.462529 -4.497527 -1.508377 0 0 0
17 17 3.487592 -4.996686 -1.443323 0 0 0
18 18 -2.938370 -1.932423 -1.533834 0 0 0
19 19 -3.795444 -2.464527 -1.015499 0 0 0
20 20 -2.276193 -2.492286 -0.949326 0 0 0
21 21 1.834955 -0.107288 -0.489968 0 0 0
22 22 4.999954 -2.244222 -1.003045 0 0 0
23 23 -2.583669 1.306334 -1.744907 0 0 0
24 24 -0.774834 1.957388 -1.903418 0 0 0
25 25 -0.885360 0.925690 -1.446206 0 0 0
26 26 0.038357 0.649683 -2.036931 0 0 0
27 27 -4.839777 3.186545 -0.415184 0 0 0
28 28 -1.544522 3.657259 -1.353416 0 0 0
29 29 -0.926124 2.731710 -1.078125 0 0 0
30 30 2.460527 4.599713 -0.932163 0 0 0
31 31 3.541920 4.067914 -0.820159 0 0 0
32 32 -4.361897 -2.515251 2.173171 0 0 0
33 33 4.487956 -3.551321 1.306854 0 0 0
34 34 -3.099548 -2.439520 1.984027 0 0 0
35 35 -1.131527 -1.258184 2.298973 0 0 0
36 36 0.025425 -0.802584 1.945413 0 0 0
37 37 4.581361 -2.471498 1.408968 0 0 0
38 38 -4.800979 1.945232 1.360169 0 0 0
39 39 1.960402 0.705596 0.328688 0 0 0
40 40 1.421822 0.230429 1.135176 0 0 0
41 41 4.893577 0.889712 1.612208 0 0 0
42 42 2.567356 0.546186 1.288945 0 0 0
43 43 -4.606420 3.121386 1.236641 0 0 0
44 44 1.265993 4.986283 2.062615 0 0 0
45 45 4.490922 3.182110 0.519233 0 0 0
46 46 -3.720275 -3.124466 3.043447 0 0 0
47 47 -4.951818 -3.025487 4.710259 0 0 0
48 48 -0.396678 -4.237733 3.430460 0 0 0
49 49 0.545173 -4.642144 2.941610 0 0 0
50 50 0.092791 -3.665179 4.242514 0 0 0
51 51 3.614061 -2.844454 4.621359 0 0 0
52 52 -3.276608 -2.119595 3.141417 0 0 0
53 53 -0.090492 -1.589616 2.777998 0 0 0
54 54 0.311780 -2.439570 3.350314 0 0 0
55 55 -1.586815 1.873689 3.536630 0 0 0
56 56 -2.170305 2.453583 4.320513 0 0 0
57 57 2.384246 2.051632 4.934166 0 0 0
58 58 3.215779 2.148255 4.063206 0 0 0
59 59 -3.243766 2.599828 4.364358 0 0 0
60 60 -1.393464 3.077376 2.849570 0 0 0
61 61 -1.231298 2.903001 4.090455 0 0 0
62 62 1.281066 3.179793 4.770644 0 0 0
63 63 2.400219 3.708589 4.881821 0 0 0
64 64 3.282838 3.213451 4.436756 0 0 0
ITEM: TIMESTEP 
6
ITEM: NUMBER OF ATOMS
64
ITEM: BOX BOUNDS
-5.000000 5.000000
-5.000000 5.000000
-5.000000 5.000000
ITEM: ATOMS id type x y z ix iy iz
1 1 -2.121113 -3.010693 -2.527181 0 0 0
2 2 0.744938 -3.223558 -4.825836 0 0 0
3 3 3.408349 -2.661566 -4.800240 0 0 0
4 4 -0.160678 -1.981800 -4.774139 0 0 0
5 5 0.848781 -1.535520 -4.640391 0 0 0
6 6 4.999912 -0.316687 -3.318152 0 0 0
7 7 -4.573465 0.740524 -4.300402 0 0 0
8 8 4.571349 0.050665 -4.387461 0 0 0
9 9 -3.509727 -3.097960 -0.602661 0 0 0
10 10 -2.494905 -3.416880 -0.953760 0 0 0
11 11 2.462529 -4.497527 -2.064233 0 0 0
12 12 3.487592 -4.996686 -1.999179 0 0 0
13 13 -3.795444 -2.464527 -1.571356 0 0 0
14 14 -2.938370 -1.932423 -2.089690 0 0 0
15 15 -2.276193 -2.492286 -1.505183 0 0 0
16 16 1.834955 -0.107288 -1.045825 0 0 0
17 17 4.999954 -2.244222 -1.558902 0 0 0
18 18 -2.583669 1.306334 -2.300763 0 0 0
19 19 -1.758665 1.574345 -1.560998 0 0 0
20 20 -0.774834 1.957388 -2.459274 0 0 0
21 21 0.265238 1.478250 -2.129531 0 0 0
22 22 1.960402 0.705596 -0.227169 0 0 0
23 23 -4.839777 3.186545 -0.971040 0 0 0
24 24 -0.926124 2.731710 -1.633981 0 0 0
25 25 -1.544522 3.657259 -1.909273 0 0 0
26 26 2.460527 4.599713 -1.488019 0 0 0
27 27 3.541920 4.067914 -1.376016 0 0 0
28 28 4.490922 3.182110 -0.036623 0 0 0
29 29 -4.361897 -2.515251 1.617314 0 0 0
30 30 -3.720275 -3.124466 2.487590 0 0 0
31 31 0.545173 -4.642144 2.385754 0 0 0
32 32 4.487956 -3.551321 0.750997 0 0 0
33 33 -3.290158 -2.146747 1.458582 0 0 0
34 34 -0.435158 -1.784812 1.082657 0 0 0
35 35 -0.090492 -1.589616 2.222142 0 0 0
36 36 0.025425 -0.802584 1.389556 0 0 0
37 37 4.581361 -2.471498 0.853111 0 0 0
38 38 -4.800979 1.945232 0.804312 0 0 0
39 39 1.566899 0.160672 0.699077 0 0 0
40 40 2.635600 0.207878 0.499886 0 0 0
41 41 4.893577 0.889712 1.056352 0 0 0
42 42 -4.606420 3.121386 0.680785 0 0 0
43 43 1.265993 4.986283 1.506758 0 0 0
44 44 -4.951818 -3.025487 4.154403 0 0 0
45 45 -0.396678 -4.237733 2.874604 0 0 0
46 46 -0.230395 -3.033072 4.584458 0 0 0
47 47 0.092791 -3.665179 3.686658 0 0 0
48 48 3.614061 -2.844454 4.065502 0 0 0
49 49 -3.276608 -2.119595 2.585561 0 0 0
50 50 0.311780 -2.439570 2.794458 0 0 0
51 51 3.959413 -1.900669 4.603621 0 0 0
52 52 -2.941116 2.239050 4.800194 0 0 0
53 53 -1.586815 1.873689 2.980774 0 0 0
54 54 -2.170305 2.453583 3.764656 0 0 0
55 55 2.237221 2.383439 4.098210 0 0 0
56 56 3.215779 2.148255 3.507350 0 0 0
57 57 -3.243766 2.599828 3.808501 0 0 0
58 58 -3.836891 2.884725 4.734794 0 0 0
59 59 -1.231298 2.903001 3.534599 0 0 0
60 60 -1.974666 2.909895 2.602533 0 0 0
61 61 1.281066 3.179793 4.214787 0 0 0
62 62 2.400219 3.708589 4.325965 0 0 0
63 63 3.282838 3.213451 3.880899 0 0 0
64 64 3.483557 2.757650 4.920424 0 0 0
ITEM: TIMESTEP 
7
ITEM: NUMBER OF ATOMS
64
ITEM: BOX BOUNDS
-5.000000 5.000000
-5.000000 5.000000
-5.000000 5.000000
ITEM: ATOMS id type x y z ix iy iz
1 1 -2.800111 -3.010693 -2.527181 0 0 0
2 2 0.065939 -3.223558 -4.825836 0 0 0
3 3 2.729351 -2.661566 -4.800240 0 0 0
4 4 -0.839676 -1.981800 -4.774139 0 0 0
5 5 -0.120641 -2.457954 -3.952494 0 0 0
6 6 4.320913 -0.316687 -3.318152 0 0 0
7 7 3.892350 0.050665 -4.387461 0 0 0
8 8 4.537379 0.645446 -3.650178 0 0 0
9 9 -4.188726 -3.097960 -0.602661 0 0 0
10 10 -3.173903 -3.416880 -0.953760 0 0 0
11 11 1.783530 -4.497527 -2.064233 0 0 0
12 12 2.808594 -4.996686 -1.999179 0 0 0
13 13 -4.474442 -2.464527 -1.571356 0 0 0
14 14 -3.617369 -1.932423 -2.089690 0 0 0
15 15 -2.955192 -2.492286 -1.505183 0 0 0
16 16 1.155957 -0.107288 -1.045825 0 0 0
17 17 4.320955 -2.244222 -1.558902 0 0 0
18 18 -3.262668 1.306334 -2.300763 0 0 0
19 19 -1.453833 1.957388 -2.459274 0 0 0
20 20 -2.437664 1.574345 -1.560998 0 0 0
21 21 -0.554685 1.613060 -1.627676 0 0 0
22 22 1.281403 0.705596 -0.227169 0 0 0
23 23 -1.605123 2.731710 -1.633981 0 0 0
24 24 -2.223521 3.657259 -1.909273 0 0 0
25 25 1.781528 4.599713 -1.488019 0 0 0
26 26 2.862921 4.067914 -1.376016 0 0 0
27 27 3.811924 3.182110 -0.036623 0 0 0
28 28 4.481224 3.186545 -0.971040 0 0 0
29 29 -4.399274 -3.124466 2.487590 0 0 0
30 30 -0.133826 -4.642144 2.385754 0 0 0
31 31 3.808957 -3.551321 0.750997 0 0 0
32 32 4.959105 -2.515251 1.617314 0 0 0
33 33 -3.969157 -2.146747 1.458582 0 0 0
34 34 -0.769490 -1.589616 2.222142 0 0 0
35 35 -1.114156 -1.784812 1.082657 0 0 0
36 36 -0.574068 -0.851309 1.425386 0 0 0
37 37 3.902363 -2.471498 0.853111 0 0 0
38 38 0.887901 0.160672 0.699077 0 0 0
39 39 1.956601 0.207878 0.499886 0 0 0
40 40 3.572863 0.610081 0.738831 0 0 0
41 41 4.352373 2.226912 0.155628 0 0 0
42 42 0.586994 4.986283 1.506758 0 0 0
43 43 4.714581 3.121386 0.680785 0 0 0
44 44 -4.979545 -2.588569 3.419537 0 0 0
45 45 -1.075676 -4.237733 2.874604 0 0 0
46 46 -0.909394 -3.033072 4.584458 0 0 0
47 47 -0.278925 -3.571185 3.138617 0 0 0
48 48 2.935062 -2.844454 4.065502 0 0 0
49 49 -3.955607 -2.119595 2.585561 0 0 0
50 50 -0.367219 -2.439570 2.794458 0 0 0
51 51 3.280414 -1.900669 4.603621 0 0 0
52 52 -3.620115 2.239050 4.800194 0 0 0
53 53 -2.849304 2.453583 3.764656 0 0 0
54 54 -2.265814 1.873689 2.980774 0 0 0
55 55 1.558223 2.383439 4.098210 0 0 0
56 56 2.536780 2.148255 3.507350 0 0 0
57 57 -3.922765 2.599828 3.808501 0 0 0
58 58 -4.515890 2.884725 4.734794 0 0 0
59 59 -2.653665 2.909895 2.602533 0 0 0
60 60 -1.910297 2.903001 3.534599 0 0 0
61 61 0.602068 3.179793 4.214787 0 0 0
62 62 1.721220 3.708589 4.325965 0 0 0
63 63 2.603840 3.213451 3.880899 0 0 0
64 64 2.804558 2.757650 4.920424 0 0 0
ITEM: TIMESTEP 
8
ITEM: NUMBER OF ATOMS
64
ITEM: BOX BOUNDS
-5.000000 5.000000
-5.000000 5.000000
-5.000000 5.000000
ITEM: ATOMS id type x y z ix iy iz
1 1 -4.315020 -3.047148 -2.601910 0 0 0
2 2 -0.641899 -3.223558 -4.825836 0 0 0
3 3 2.021512 -2.661566 -4.800240 0 0 0
4 4 -0.828480 -2.457954 -3.952494 0 0 0
5 5 -1.547515 -1.981800 -4.774139 0 0 0
6 6 3.613075 -0.316687 -3.318152 0 0 0
7 7 3.829541 0.645446 -3.650178 0 0 0
8 8 3.184511 0.050665 -4.387461 0 0 0
9 9 -4.896564 -3.097960 -0.602661 0 0 0
10 10 -3.881742 -3.416880 -0.953760 0 0 0
11 11 1.075692 -4.497527 -2.064233 0 0 0
12 12 2.100755 -4.996686 -1.999179 0 0 0
13 13 -3.663031 -2.492286 -1.505183 0 0 0
14 14 -4.325208 -1.932423 -2.089690 0 0 0
15 15 0.788473 -0.198965 -0.815841 0 0 0
16 16 3.750127 -2.256812 -1.747563 0 0 0
17 17 4.817719 -2.464527 -1.571356 0 0 0
18 18 -3.920634 2.067909 -2.237346 0 0 0
19 19 -3.145503 1.574345 -1.560998 0 0 0
20 20 -1.262523 1.613060 -1.627676 0 0 0
21 21 -2.161671 1.957388 -2.459274 0 0 0
22 22 0.573565 0.705596 -0.227169 0 0 0
23 23 -2.931360 3.657259 -1.909273 0 0 0
24 24 -2.312961 2.731710 -1.633981 0 0 0
25 25 1.073690 4.599713 -1.488019 0 0 0
26 26 2.155083 4.067914 -1.376016 0 0 0
27 27 3.773386 3.186545 -0.971040 0 0 0
28 28 3.104085 3.182110 -0.036623 0 0 0
29 29 -0.841664 -4.642144 2.385754 0 0 0
30 30 4.251266 -2.515251 1.617314 0 0 0
31 31 3.101118 -3.551321 0.750997 0 0 0
32 32 4.901203 -3.120963 2.273147 0 0 0
33 33 -4.676995 -2.146747 1.458582 0 0 0
34 34 -1.477329 -1.589616 2.222142 0 0 0
35 35 -1.281907 -0.851309 1.425386 0 0 0
36 36 -1.821995 -1.784812 1.082657 0 0 0
37 37 3.194524 -2.471498 0.853111 0 0 0
38 38 0.180062 0.160672 0.699077 0 0 0
39 39 1.248763 0.207878 0.499886 0 0 0
40 40 3.197972 1.078849 0.925281 0 0 0
41 41 3.644535 2.226912 0.155628 0 0 0
42 42 -0.120844 4.986283 1.506758 0 0 0
43 43 4.006743 3.121386 0.680785 0 0 0
44 44 -0.986764 -3.571185 3.138617 0 0 0
45 45 -1.617232 -3.033072 4.584458 0 0 0
46 46 -1.783515 -4.237733 2.874604 0 0 0
47 47 2.227223 -2.844454 4.065502 0 0 0
48 48 4.312617 -2.588569 3.419537 0 0 0
49 49 -4.663445 -2.119595 2.585561 0 0 0
50 50 -1.221049 -2.462652 2.966877 0 0 0
51 51 2.572576 -1.900669 4.603621 0 0 0
52 52 -4.327954 2.239050 4.800194 0 0 0
53 53 -3.557143 2.453583 3.764656 0 0 0
54 54 -2.973653 1.873689 2.980774 0 0 0
55 55 0.850384 2.383439 4.098210 0 0 0
56 56 1.828941 2.148255 3.507350 0 0 0
57 57 -4.630603 2.599828 3.808501 0 0 0
58 58 -3.361503 2.909895 2.602533 0 0 0
59 59 -2.618136 2.903001 3.534599 0 0 0
60 60 -0.008161 3.229956 3.930872 0 0 0
61 61 1.013382 3.708589 4.325965 0 0 0
62 62 1.896001 3.213451 3.880899 0 0 0
63 63 1.994099 2.910873 4.910955 0 0 0
64 64 4.776272 2.884725 4.734794 0 0 0
ITEM: TIMESTEP 
9
ITEM: NUMBER OF ATOMS
64
ITEM: BOX BOUNDS
-5.000000 5.000000
-5.000000 5.000000
-5.000000 5.000000
ITEM: ATOMS id type x y z ix iy iz
1 1 -0.641899 -3.014773 -4.825836 0 0 0
2 2 -3.699840 -2.320713 -2.739570 0 0 0
3 3 -1.547515 -1.773016 -4.774139 0 0 0
4 4 -0.828480 -2.249169 -3.952494 0 0 0
5 5 2.021512 -2.452781 -4.800240 0 0 0
6 6 3.056990 -0.011114 -3.225944 0 0 0
7 7 3.184511 0.259450 -4.387461 0 0 0
8 8 2.580298 0.941093 -3.652627 0 0 0
9 9 -4.896564 -2.889175 -0.602661 0 0 0
10 10 -3.881742 -3.208095 -0.953760 0 0 0
11 11 1.075692 -4.288742 -2.064233 0 0 0
12 12 2.100755 -4.787901 -1.999179 0 0 0
13 13 -4.325208 -1.723638 -2.089690 0 0 0
14 14 -3.663031 -2.283501 -1.505183 0 0 0
15 15 3.750127 -2.048027 -1.747563 0 0 0
16 16 4.817719 -2.255742 -1.571356 0 0 0
17 17 -3.145503 1.783130 -1.560998 0 0 0
18 18 -3.920634 2.276694 -2.237346 0 0 0
19 19 -2.161671 2.166173 -2.459274 0 0 0
20 20 -1.170196 2.421565 -1.631878 0 0 0
21 21 0.573565 0.914381 -0.227169 0 0 0
22 22 0.788473 0.009820 -0.815841 0 0 0
23 23 -2.931360 3.866044 -1.909273 0 0 0
24 24 -2.312961 2.940495 -1.633981 0 0 0
25 25 2.261724 4.757552 -1.026940 0 0 0
26 26 1.073690 4.808498 -1.488019 0 0 0
27 27 3.324029 4.355522 -0.682059 0 0 0
28 28 3.104085 3.390895 -0.036623 0 0 0
29 29 -0.841664 -4.433359 2.385754 0 0 0
30 30 4.901203 -2.912179 2.273147 0 0 0
31 31 4.194284 -3.691516 1.833488 0 0 0
32 32 -4.676995 -1.937962 1.458582 0 0 0
33 33 -1.477329 -1.380831 2.222142 0 0 0
34 34 -1.821995 -1.576028 1.082657 0 0 0
35 35 -1.281907 -0.642524 1.425386 0 0 0
36 36 3.194524 -2.262713 0.853111 0 0 0
37 37 4.251266 -2.306466 1.617314 0 0 0
38 38 0.180062 0.369456 0.699077 0 0 0
39 39 1.248763 0.416663 0.499886 0 0 0
40 40 3.091818 1.272199 0.527594 0 0 0
41 41 3.644535 2.435697 0.155628 0 0 0
42 42 -1.002249 4.842948 1.537124 0 0 0
43 43 4.006743 3.330171 0.680785 0 0 0
44 44 -0.986764 -3.362400 3.138617 0 0 0
45 45 -1.617232 -2.824287 4.584458 0 0 0
46 46 -1.783515 -4.028949 2.874604 0 0 0
47 47 2.227223 -2.635669 4.065502 0 0 0
48 48 4.011970 -2.913820 3.007680 0 0 0
49 49 -4.663445 -1.910810 2.585561 0 0 0
50 50 -1.221049 -2.253867 2.966877 0 0 0
51 51 2.572576 -1.691884 4.603621 0 0 0
52 52 -2.973653 2.082474 2.980774 0 0 0
53 53 -4.327954 2.447834 4.800194 0 0 0
54 54 1.828941 2.357040 3.507350 0 0 0
55 55 -4.630603 2.808612 3.808501 0 0 0
56 56 -3.361503 3.118680 2.602533 0 0 0
57 57 -2.618136 3.111786 3.534599 0 0 0
58 58 -3.557143 2.662368 3.764656 0 0 0
59 59 -0.008161 3.438741 3.930872 0 0 0
60 60 1.896001 3.422235 3.880899 0 0 0
61 61 1.013382 3.917373 4.325965 0 0 0
62 62 1.994099 3.119658 4.910955 0 0 0
63 63 0.850384 2.592223 4.098210 0 0 0
64 64 4.776272 3.093510 4.734794 0 0 0
ITEM: TIMESTEP 
10
ITEM: NUMBER OF ATOMS
64
ITEM: BOX BOUNDS
-5.000000 5.000000
-5.000000 5.000000
-5.000000 5.000000
ITEM: ATOMS id type x y z ix iy iz
1 1 -3.699840 -2.506838 -2.739570 0 0 0
2 2 -0.641899 -3.200898 -4.825836 0 0 0
3 3 2.021512 -2.638906 -4.800240 0 0 0
4 4 -0.828480 -2.435294 -3.952494 0 0 0
5 5 -1.547515 -1.959140 -4.774139 0 0 0
6 6 3.056990 -0.197239 -3.225944 0 0 0
7 7 3.184511 0.073325 -4.387461 0 0 0
8 8 2.580298 0.754968 -3.652627 0 0 0
9 9 -4.045259 -3.277411 -1.305911 0 0 0
10 10 -4.896564 -3.075300 -0.602661 0 0 0
11 11 1.075692 -4.474867 -2.064233 0 0 0
12 12 2.100755 -4.974026 -1.999179 0 0 0
13 13 4.918116 -2.563468 -1.626220 0 0 0
14 14 -4.325208 -1.909763 -2.089690 0 0 0
15 15 -3.528068 -2.433184 -1.548516 0 0 0
16 16 0.788473 -0.176305 -0.815841 0 0 0
17 17 3.750127 -2.234152 -1.747563 0 0 0
18 18 -3.920634 2.090569 -2.237346 0 0 0
19 19 -3.145503 1.597005 -1.560998 0 0 0
20 20 -2.161671 1.980048 -2.459274 0 0 0
21 21 -1.200529 2.152587 -1.861609 0 0 0
22 22 0.573565 0.728256 -0.227169 0 0 0
23 23 -2.931360 3.679919 -1.909273 0 0 0
24 24 -2.312961 2.754370 -1.633981 0 0 0
25 25 2.261724 4.571427 -1.026940 0 0 0
26 26 1.073690 4.622374 -1.488019 0 0 0
27 27 3.324029 4.169397 -0.682059 0 0 0
28 28 3.104085 3.204770 -0.036623 0 0 0
29 29 -0.841664 -4.619484 2.385754 0 0 0
30 30 4.901203 -3.098303 2.273147 0 0 0
31 31 4.194284 -3.877640 1.833488 0 0 0
32 32 -4.676995 -2.124087 1.458582 0 0 0
33 33 -1.281907 -0.828649 1.425386 0 0 0
34 34 -1.477329 -1.566956 2.222142 0 0 0
35 35 -1.821995 -1.762152 1.082657 0 0 0
36 36 4.251266 -2.492591 1.617314 0 0 0
37 37 3.823883 -2.394843 0.349994 0 0 0
38 38 1.248763 0.230538 0.499886 0 0 0
39 39 0.180062 0.183332 0.699077 0 0 0
40 40 3.584304 1.095125 0.224661 0 0 0
41 41 3.644535 2.249572 0.155628 0 0 0
42 42 -1.250968 4.363522 2.417745 0 0 0
43 43 4.006743 3.144046 0.680785 0 0 0
44 44 -1.441932 -2.788721 4.464032 0 0 0
45 45 -1.783515 -4.215074 2.874604 0 0 0
46 46 -0.986764 -3.548525 3.138617 0 0 0
47 47 2.227223 -2.821794 4.065502 0 0 0
48 48 4.011970 -3.099945 3.007680 0 0 0
49 49 -4.663445 -2.096935 2.585561 0 0 0
50 50 -1.221049 -2.439992 2.966877 0 0 0
51 51 2.572576 -1.878009 4.603621 0 0 0
52 52 -4.327954 2.261710 4.800194 0 0 0
53 53 -2.973653 1.896349 2.980774 0 0 0
54 54 -3.557143 2.476243 3.764656 0 0 0
55 55 1.828941 2.170915 3.507350 0 0 0
56 56 0.850384 2.406098 4.098210 0 0 0
57 57 -4.630603 2.622488 3.808501 0 0 0
58 58 -3.361503 2.932555 2.602533 0 0 0
59 59 -2.618136 2.925661 3.534599 0 0 0
60 60 -0.008161 3.252616 3.930872 0 0 0
61 61 1.896001 3.236111 3.880899 0 0 0
62 62 1.994099 2.933533 4.910955 0 0 0
63 63 1.013382 3.731249 4.325965 0 0 0
64 64 4.776272 2.907385 4.734794 0 0 0
ITEM: TIMESTEP 
11