ITEM: TIMESTEP 
0
ITEM: NUMBER OF ATOMS
113
ITEM: BOX BOUNDS
-5.000000 5.000000
-5.000000 5.000000
-5.000000 5.000000
ITEM: ATOMS id type x y z ix iy iz
1 1 -0.003397 -0.053158 -4.449671 0 0 0
2 2 2.069450 -0.007551 -4.487031 0 0 0
3 3 3.991067 -0.031770 -4.393990 0 0 0
4 4 -3.974468 1.964195 -4.399999 0 0 0
5 5 -0.022751 2.010587 -4.418361 0 0 0
6 6 -2.006670 2.006618 -4.409068 0 0 0
7 7 1.973267 1.960777 -4.433866 0 0 0
8 8 4.032414 2.017614 -4.413038 0 0 0
9 9 -4.011106 4.028161 -4.433302 0 0 0
10 10 -0.023530 4.029793 -4.421497 0 0 0
11 11 -2.030870 3.976693 -4.469979 0 0 0
12 12 2.018745 4.021606 -4.427713 0 0 0
13 13 3.989416 4.015821 -4.477278 0 0 0
14 14 -4.011649 -4.022712 -2.438539 0 0 0
15 15 -3.973527 -3.972624 -0.450119 0 0 0
16 16 -1.995711 -4.013715 -0.437036 0 0 0
17 17 0.000000 -4.000000 -0.427221 0 0 0
18 18 -1.989204 -4.013395 -2.424709 0 0 0
19 19 0.000000 -4.000000 -2.427221 0 0 0
20 20 1.983075 -3.978064 -2.433580 0 0 0
21 21 1.999152 -3.985524 -0.430710 0 0 0
22 22 3.966756 -4.012002 -0.432417 0 0 0
23 23 3.998159 -3.978983 -2.383445 0 0 0
24 24 -3.982486 -0.004613 -2.428464 0 0 0
25 25 -3.989261 -1.969032 -2.398985 0 0 0
26 26 -4.011622 -1.984396 -0.427413 0 0 0
27 27 -4.000000 0.000000 -0.427221 0 0 0
28 28 0.000000 -2.000000 -0.427221 0 0 0
29 29 -2.006286 -0.008514 -0.435766 0 0 0
30 30 0.000000 0.000000 -0.427221 0 0 0
31 31 -2.001257 -2.002240 -2.434145 0 0 0
32 32 -0.001583 -2.018429 -2.418807 0 0 0
33 33 0.000000 0.000000 -2.427221 0 0 0
34 34 -2.005718 -0.008291 -2.402786 0 0 0
35 35 -1.990501 -2.007411 -0.434595 0 0 0
36 36 1.998126 -0.010901 -0.428929 0 0 0
37 37 1.988735 -2.026525 -2.447526 0 0 0
38 38 2.015416 -0.036626 -2.427220 0 0 0
39 39 1.997802 -1.983269 -0.450375 0 0 0
40 40 4.019907 -2.002764 -2.413798 0 0 0
41 41 3.993794 -0.003252 -0.436563 0 0 0
42 42 4.000000 -2.000000 -0.427221 0 0 0
43 43 3.975144 -0.007314 -2.424984 0 0 0
44 44 -4.009632 1.998716 -0.442069 0 0 0
45 45 -3.970877 1.955784 -2.426827 0 0 0
46 46 -0.011862 2.008770 -2.453209 0 0 0
47 47 -1.988124 2.004653 -2.422332 0 0 0
48 48 -1.983320 1.973019 -0.446558 0 0 0
49 49 0.000000 2.000000 -0.427221 0 0 0
50 50 2.005353 1.991097 -0.432433 0 0 0
51 51 2.002234 1.978361 -2.391294 0 0 0
52 52 4.028534 1.986128 -2.419921 0 0 0
53 53 4.004596 2.006556 -0.439634 0 0 0
54 54 -3.998560 3.990763 -0.427892 0 0 0
55 55 -4.000566 4.015223 -2.434358 0 0 0
56 56 -0.020346 4.016315 -0.443905 0 0 0
57 57 -1.989631 4.002019 -0.433489 0 0 0
58 58 -0.001970 4.004288 -2.415572 0 0 0
59 59 -1.987835 3.999111 -2.431517 0 0 0
60 60 1.975184 3.988406 -2.436311 0 0 0
61 61 2.021441 3.996087 -0.439461 0 0 0
62 62 4.028466 3.992435 -0.427362 0 0 0
63 63 4.003448 4.007383 -2.418836 0 0 0
64 64 -3.992901 -3.996241 1.581447 0 0 0
65 65 -0.000599 -4.010597 1.584205 0 0 0
66 66 -2.010318 -3.975901 1.584510 0 0 0
67 67 1.997277 -4.005020 1.583856 0 0 0
68 68 4.018774 -3.983213 1.565770 0 0 0
69 69 -4.010116 -0.003432 1.534915 0 0 0
70 70 -4.007519 -2.035193 1.576603 0 0 0
71 71 -2.003105 -2.012602 1.592849 0 0 0
72 72 -2.001772 -0.032438 1.553035 0 0 0
73 73 -0.005504 -2.003652 1.590387 0 0 0
74 74 0.000000 0.000000 1.572779 0 0 0
75 75 2.022717 -0.023287 1.563462 0 0 0
76 76 1.995283 -2.001292 1.587577 0 0 0
77 77 4.002923 -2.016405 1.599751 0 0 0
78 78 3.983712 -0.006919 1.606773 0 0 0
79 79 -3.957299 1.926904 1.573574 0 0 0
80 80 -1.962652 2.010745 1.551819 0 0 0
81 81 -0.009250 1.966710 1.598771 0 0 0
82 82 1.994981 2.028389 1.516387 0 0 0
83 83 4.015400 2.004815 1.637319 0 0 0
84 84 -4.014052 3.973120 1.551558 0 0 0
85 85 -0.064435 4.004687 1.611892 0 0 0
86 86 -2.050055 4.023033 1.596398 0 0 0
87 87 1.989980 4.049064 1.567416 0 0 0
88 88 4.007133 4.044225 1.617695 0 0 0
89 89 -3.955121 -3.999478 3.576765 0 0 0
90 90 -1.990919 -3.988015 3.574849 0 0 0
91 91 -0.030274 -4.027596 3.580314 0 0 0
92 92 2.024328 -3.981273 3.520505 0 0 0
93 93 3.996080 -3.997452 3.547523 0 0 0
94 94 -4.008208 -1.986018 3.568898 0 0 0
95 95 -3.991714 -0.013667 3.593280 0 0 0
96 96 0.000000 -2.000000 3.572779 0 0 0
97 97 -2.006917 -0.002180 3.575375 0 0 0
98 98 -0.003225 -0.014624 3.578547 0 0 0
99 99 -2.001347 -1.989826 3.579520 0 0 0
100 100 1.995763 -0.001673 3.601732 0 0 0
101 101 2.010209 -2.061529 3.577187 0 0 0
102 102 3.986960 -1.971038 3.567534 0 0 0
103 103 3.994984 -0.020352 3.589502 0 0 0
104 104 -3.939942 1.996262 3.597826 0 0 0
105 105 -0.038409 2.017893 3.569645 0 0 0
106 106 -1.996941 2.028261 3.561684 0 0 0
107 107 1.982798 2.004163 3.554007 0 0 0
108 108 3.947954 2.043261 3.523635 0 0 0
109 109 -3.945725 4.026561 3.570256 0 0 0
110 110 -0.013429 3.998868 3.553485 0 0 0
111 111 -1.982476 3.978543 3.545804 0 0 0
112 112 1.986147 4.003697 3.559382 0 0 0
113 113 3.929122 3.967522 3.532931 0 0 0
ITEM: TIMESTEP 
1
ITEM: NUMBER OF ATOMS
113
ITEM: BOX BOUNDS
-5.000000 5.000000
-5.000000 5.000000
-5.000000 5.000000
ITEM: ATOMS id type x y z ix iy iz
1 1 -1.091481 -0.055902 -4.490721 0 0 0
2 2 1.019557 -0.003745 -4.532290 0 0 0
3 3 2.835446 -0.033578 -4.348723 0 0 0
4 4 -3.577063 1.995274 -4.386701 0 0 0
5 5 -1.112876 1.995092 -4.422746 0 0 0
6 6 0.898513 1.915711 -4.453618 0 0 0
7 7 2.932915 2.016608 -4.412210 0 0 0
8 8 4.453779 1.949390 -4.376191 0 0 0
9 9 -3.636026 3.986103 -4.490398 0 0 0
10 10 -1.125792 4.047918 -4.418515 0 0 0
11 11 0.948586 4.018210 -4.386047 0 0 0
12 12 2.867947 4.017695 -4.513525 0 0 0
13 13 4.444618 3.993680 -4.414186 0 0 0
14 14 -3.540163 -4.028443 -2.440162 0 0 0
15 15 -3.606189 -4.000449 -0.424890 0 0 0
16 16 -1.093078 -3.981758 -0.390780 0 0 0
17 17 -1.087918 -3.998868 -2.414098 0 0 0
18 18 0.937236 -4.018010 -2.460191 0 0 0
19 19 0.916877 -4.019361 -0.458597 0 0 0
20 20 2.890729 -4.013114 -0.413378 0 0 0
21 21 2.947169 -3.950825 -2.373825 0 0 0
22 22 4.382547 -3.995455 -2.421097 0 0 0
23 23 4.415036 -3.976926 -0.442130 0 0 0
24 24 -3.584797 -0.000140 -2.417259 0 0 0
25 25 -3.573083 -2.009354 -0.437617 0 0 0
26 26 -3.588399 -2.016123 -2.441117 0 0 0
27 27 -3.589262 -0.021135 -0.432298 0 0 0
28 28 -1.079249 0.000000 -2.427221 0 0 0
29 29 -1.081972 -2.024636 -2.393115 0 0 0
30 30 -1.079249 0.000000 -0.427221 0 0 0
31 31 -1.090837 -1.986195 -0.444269 0 0 0
32 32 0.912436 -2.041892 -2.444759 0 0 0
33 33 0.951241 -1.966603 -0.446922 0 0 0
34 34 0.917352 -0.020535 -0.407718 0 0 0
35 35 0.925372 -0.025567 -2.426086 0 0 0
36 36 2.926610 -2.034012 -0.408310 0 0 0
37 37 2.936122 -0.027139 -0.440868 0 0 0
38 38 2.892855 -0.014128 -2.424035 0 0 0
39 39 2.921772 -2.004697 -2.408789 0 0 0
40 40 4.419955 -1.983603 -0.408398 0 0 0
41 41 4.405607 -1.958439 -2.395066 0 0 0
42 42 4.438265 -0.004613 -2.428464 0 0 0
43 43 4.420718 -0.001773 -0.427937 0 0 0
44 44 -3.537241 2.015581 -2.424105 0 0 0
45 45 -3.579226 1.997648 -0.412515 0 0 0
46 46 -1.080015 2.000978 -0.421005 0 0 0
47 47 -1.084101 2.006389 -2.453112 0 0 0
48 48 0.889829 1.957348 -0.382951 0 0 0
49 49 0.934840 1.980993 -2.395561 0 0 0
50 50 2.941399 1.978948 -2.391572 0 0 0
51 51 2.930046 1.989122 -0.429615 0 0 0
52 52 4.453084 1.960467 -2.438375 0 0 0
53 53 4.452825 1.986383 -0.439034 0 0 0
54 54 -3.571777 3.999081 -0.431713 0 0 0
55 55 -3.584873 3.989325 -2.437881 0 0 0
56 56 -1.118459 4.003718 -0.430276 0 0 0
57 57 -1.081824 4.014330 -2.418785 0 0 0
58 58 0.919877 4.017762 -0.446911 0 0 0
59 59 0.886607 3.988837 -2.466696 0 0 0
60 60 2.919573 3.990960 -0.430316 0 0 0
61 61 2.918959 3.976005 -2.361006 0 0 0
62 62 4.400889 3.991387 -0.451857 0 0 0
63 63 4.411428 3.987650 -2.427431 0 0 0
64 64 -3.574407 -4.007251 1.584083 0 0 0
65 65 -1.079989 -4.004878 1.580236 0 0 0
66 66 0.913221 -4.040811 1.595972 0 0 0
67 67 2.863475 -3.974427 1.618758 0 0 0
68 68 4.381558 -4.034356 1.563842 0 0 0
69 69 -3.582124 -2.039994 1.586658 0 0 0
70 70 -3.590097 -0.032339 1.548982 0 0 0
71 71 -1.081775 -0.002149 1.568437 0 0 0
72 72 -1.079402 -2.008481 1.598781 0 0 0
73 73 0.939869 -0.007916 1.585220 0 0 0
74 74 0.907390 -1.987080 1.566376 0 0 0
75 75 2.902095 -2.005539 1.609938 0 0 0
76 76 2.876469 -0.015513 1.594943 0 0 0
77 77 4.399734 -2.039981 1.616407 0 0 0
78 78 4.408904 -0.013433 1.540822 0 0 0
79 79 -3.491960 2.016942 1.526105 0 0 0
80 80 -1.107956 1.980570 1.608553 0 0 0
81 81 0.958607 2.016797 1.555450 0 0 0
82 82 2.879246 2.052828 1.651427 0 0 0
83 83 4.474740 1.954631 1.578511 0 0 0
84 84 -3.658384 3.983365 1.615367 0 0 0
85 85 -1.167612 3.988727 1.658014 0 0 0
86 86 0.923061 4.050136 1.599222 0 0 0
87 87 2.893426 4.014574 1.679129 0 0 0
88 88 4.387054 3.986765 1.537686 0 0 0
89 89 -3.560496 -3.983940 3.539863 0 0 0
90 90 -1.117733 -4.052468 3.564856 0 0 0
91 91 0.952899 -3.954368 3.486815 0 0 0
92 92 2.925264 -3.998977 3.579357 0 0 0
93 93 4.454149 -3.951461 3.598196 0 0 0
94 94 -3.572785 -0.000638 3.565334 0 0 0
95 95 -3.593380 -1.978461 3.554671 0 0 0
96 96 -1.094889 -2.044120 3.557523 0 0 0
97 97 -1.090953 -0.006556 3.589102 0 0 0
98 98 0.961328 -2.057757 3.580091 0 0 0
99 99 0.910986 -0.010162 3.600697 0 0 0
100 100 2.906683 -0.022547 3.608712 0 0 0
101 101 2.900982 -1.988654 3.564212 0 0 0
102 102 4.431091 -0.038001 3.577048 0 0 0
103 103 4.417866 -1.998575 3.573029 0 0 0
104 104 -4.978027 1.967785 3.623041 0 0 0
105 105 -3.582308 2.063362 3.567132 0 0 0
106 106 -1.167448 2.031143 3.589012 0 0 0
107 107 0.927347 2.011678 3.497883 0 0 0
108 108 2.825237 2.021533 3.539172 0 0 0
109 109 -3.567506 3.990739 3.515658 0 0 0
110 110 -1.110694 3.998460 3.517319 0 0 0
111 111 0.885900 3.975734 3.504688 0 0 0
112 112 2.838437 4.007258 3.533618 0 0 0
113 113 4.422574 4.046155 3.545195 0 0 0
ITEM: TIMESTEP 
2
ITEM: NUMBER OF ATOMS
113
ITEM: BOX BOUNDS
-5.000000 5.000000
-5.000000 5.000000
-5.000000 5.000000
ITEM: ATOMS id type x y z ix iy iz
1 1 -3.690515 -4.419827 -4.486847 0 0 0
2 2 -1.124646 -4.324549 -4.423447 0 0 0
3 3 0.885377 -4.382753 -4.384099 0 0 0
4 4 4.426636 -4.395363 -4.430853 0 0 0
5 5 2.869731 -4.408338 -4.558970 0 0 0
6 6 -1.117521 1.516660 -4.524872 0 0 0
7 7 1.023512 1.581116 -4.470696 0 0 0
8 8 2.841794 1.550236 -4.293015 0 0 0
9 9 -3.609928 3.608881 -4.428746 0 0 0
10 10 -1.134824 3.634091 -4.433429 0 0 0
11 11 0.997792 3.522269 -4.485169 0 0 0
12 12 4.457536 3.575652 -4.399813 0 0 0
13 13 2.911912 3.617580 -4.377870 0 0 0
14 14 -3.545949 -2.900340 -2.415753 0 0 0
15 15 -3.590387 -2.922148 -0.413394 0 0 0
16 16 -3.574503 -4.400069 -0.402832 0 0 0
17 17 -3.600325 -4.409905 -2.432282 0 0 0
18 18 -1.137554 -2.891491 -2.429462 0 0 0
19 19 -1.078048 -2.877095 -0.418240 0 0 0
20 20 -1.079739 -4.347365 -2.459421 0 0 0
21 21 -1.097269 -4.362085 -0.429929 0 0 0
22 22 0.925196 -2.929776 -0.471673 0 0 0
23 23 0.963865 -2.932954 -2.458015 0 0 0
24 24 0.861087 -4.391844 -2.421388 0 0 0
25 25 0.900985 -4.380853 -0.410132 0 0 0
26 26 4.392547 -2.900616 -2.412372 0 0 0
27 27 2.949695 -2.867528 -2.391427 0 0 0
28 28 2.887762 -2.893812 -0.406590 0 0 0
29 29 4.424338 -2.902196 -0.444101 0 0 0
30 30 2.927979 -4.421694 -2.351888 0 0 0
31 31 4.364914 -4.431458 -0.434459 0 0 0
32 32 2.892374 -4.404145 -0.447255 0 0 0
33 33 4.404418 -4.404550 -2.435496 0 0 0
34 34 -3.593231 -0.909355 -2.428566 0 0 0
35 35 -3.571079 -0.903032 -0.435927 0 0 0
36 36 -1.101313 -0.907400 -2.399308 0 0 0
37 37 -1.085601 -0.881850 -0.431900 0 0 0
38 38 0.978316 -0.906727 -0.408220 0 0 0
39 39 0.906821 -0.957456 -2.432067 0 0 0
40 40 4.392604 -0.867195 -2.391975 0 0 0
41 41 4.431772 -0.881958 -0.394489 0 0 0
42 42 2.932616 -0.921239 -0.408273 0 0 0
43 43 2.916589 -0.901383 -2.405655 0 0 0
44 44 -3.592214 1.600218 -2.419163 0 0 0
45 45 -3.590116 1.568481 -0.443439 0 0 0
46 46 -1.096335 1.588981 -2.430005 0 0 0
47 47 -1.078960 1.600849 -0.423195 0 0 0
48 48 0.918322 1.598888 -0.406792 0 0 0
49 49 0.918555 1.572452 -2.422728 0 0 0
50 50 4.458420 1.588871 -2.445718 0 0 0
51 51 2.921520 1.591990 -0.444717 0 0 0
52 52 2.892792 1.580124 -2.419829 0 0 0
53 53 4.417691 1.594317 -0.420825 0 0 0
54 54 -3.536330 3.630907 -2.477966 0 0 0
55 55 -3.570052 3.579737 -0.404304 0 0 0
56 56 -1.038475 3.576412 -0.403232 0 0 0
57 57 -1.107801 3.638049 -2.406813 0 0 0
58 58 0.942498 3.570731 -2.380082 0 0 0
59 59 0.838766 3.566962 -0.421903 0 0 0
60 60 4.443838 3.608400 -0.456334 0 0 0
61 61 2.943044 3.558673 -2.412193 0 0 0
62 62 4.444144 3.573227 -2.447025 0 0 0
63 63 2.919450 3.588215 -0.415011 0 0 0
64 64 -3.600305 -2.869678 1.596607 0 0 0
65 65 -3.641198 -4.396483 1.619199 0 0 0
66 66 -1.089203 -2.908116 1.531749 0 0 0
67 67 -1.177805 -4.414505 1.701237 0 0 0
68 68 0.909609 -2.952798 1.605022 0 0 0
69 69 0.935594 -4.339431 1.581888 0 0 0
70 70 2.849603 -2.855777 1.635202 0 0 0
71 71 4.370723 -2.952392 1.596607 0 0 0
72 72 2.914156 -4.375556 1.673012 0 0 0
73 73 4.422684 -4.391960 1.508577 0 0 0
74 74 -3.603322 -0.928911 1.562288 0 0 0
75 75 -1.062986 -0.915684 1.583850 0 0 0
76 76 0.883209 -0.919351 1.546241 0 0 0
77 77 4.406285 -0.955039 1.629526 0 0 0
78 78 2.922808 -0.920134 1.615331 0 0 0
79 79 -3.578987 1.573803 1.517640 0 0 0
80 80 -1.063556 1.548848 1.544682 0 0 0
81 81 0.944774 1.599017 1.602005 0 0 0
82 82 4.403008 1.568685 1.512854 0 0 0
83 83 2.863523 1.586547 1.615266 0 0 0
84 84 -3.461806 3.620604 1.544829 0 0 0
85 85 -1.099833 3.522173 1.592163 0 0 0
86 86 1.004018 3.609318 1.583239 0 0 0
87 87 4.482037 3.550832 1.568059 0 0 0
88 88 2.857766 3.663729 1.684011 0 0 0
89 89 -3.566695 -2.857941 3.533898 0 0 0
90 90 -3.576543 -4.377540 3.543379 0 0 0
91 91 -1.080294 -2.898830 3.542552 0 0 0
92 92 -1.112276 -4.401155 3.542972 0 0 0
93 93 0.965029 -2.851412 3.541788 0 0 0
94 94 0.861888 -4.399429 3.490802 0 0 0
95 95 2.898371 -2.919443 3.575348 0 0 0
96 96 4.437997 -2.783671 3.575102 0 0 0
97 97 2.843640 -4.415596 3.532823 0 0 0
98 98 4.453354 -4.372766 3.535681 0 0 0
99 99 -3.581300 -0.846331 3.563647 0 0 0
100 100 -1.076347 -0.916220 3.579609 0 0 0
101 101 0.950547 -0.960143 3.637894 0 0 0
102 102 4.408856 -0.899923 3.539558 0 0 0
103 103 2.892773 -0.879278 3.553585 0 0 0
104 104 -3.545031 1.583263 3.564121 0 0 0
105 105 -1.104159 1.552861 3.599306 0 0 0
106 106 0.889519 1.589832 3.616259 0 0 0
107 107 4.437819 1.549777 3.569600 0 0 0
108 108 2.880211 1.572170 3.622838 0 0 0
109 109 -3.545096 3.692608 3.562763 0 0 0
110 110 -4.972243 3.566320 3.618168 0 0 0
111 111 -1.200786 3.608859 3.659414 0 0 0
112 112 0.903010 3.596004 3.545463 0 0 0
113 113 2.783992 3.608213 3.524160 0 0 0
ITEM: TIMESTEP 
3
ITEM: NUMBER OF ATOMS
113
ITEM: BOX BOUNDS
-5.000000 5.000000
-5.000000 5.000000
-5.000000 5.000000
ITEM: ATOMS id type x y z ix iy iz
1 1 -3.657572 -4.363847 -4.450601 0 0 0
2 2 -1.159748 -4.316469 -4.493351 0 0 0
3 3 0.871365 -4.411678 -4.411447 0 0 0
4 4 4.401618 -4.373974 -4.458177 0 0 0
5 5 2.860511 -4.402845 -4.555719 0 0 0
6 6 -1.116540 1.484435 -4.491387 0 0 0
7 7 0.992921 1.579127 -4.482646 0 0 0
8 8 2.858941 1.637475 -4.287608 0 0 0
9 9 -3.580614 3.653414 -4.471533 0 0 0
10 10 -1.151524 3.629184 -4.488686 0 0 0
11 11 0.932806 3.484727 -4.497359 0 0 0
12 12 2.930886 3.573416 -4.360913 0 0 0
13 13 4.493398 3.551935 -4.372691 0 0 0
14 14 -3.586185 -4.404504 -0.428028 0 0 0
15 15 -3.620003 -4.391205 -2.455724 0 0 0
16 16 -3.585543 -2.923626 -0.428119 0 0 0
17 17 -3.555518 -2.889933 -2.419860 0 0 0
18 18 -1.151702 -2.907552 -2.404367 0 0 0
19 19 -1.067174 -2.872885 -0.398590 0 0 0
20 20 -1.071570 -4.312538 -2.471457 0 0 0
21 21 -1.104833 -4.341701 -0.412941 0 0 0
22 22 0.895135 -2.939116 -0.448501 0 0 0
23 23 0.833970 -4.382496 -2.434623 0 0 0
24 24 0.914114 -4.358505 -0.416280 0 0 0
25 25 0.962735 -2.902371 -2.484856 0 0 0
26 26 2.939120 -4.388546 -2.345358 0 0 0
27 27 4.410170 -2.878188 -2.414198 0 0 0
28 28 4.397768 -4.405311 -2.424943 0 0 0
29 29 4.352611 -4.409186 -0.419500 0 0 0
30 30 2.882674 -2.875785 -0.411895 0 0 0
31 31 4.434044 -2.896382 -0.448291 0 0 0
32 32 2.950839 -2.853545 -2.416013 0 0 0
33 33 2.900778 -4.399336 -0.450343 0 0 0
34 34 -3.579157 -0.891121 -2.416023 0 0 0
35 35 -3.573402 -0.946309 -0.429482 0 0 0
36 36 -1.062413 -0.891997 -0.423241 0 0 0
37 37 -1.125944 -0.908839 -2.399567 0 0 0
38 38 0.935888 -0.942689 -2.447407 0 0 0
39 39 0.952408 -0.888516 -0.465999 0 0 0
40 40 4.393114 -0.854467 -2.388312 0 0 0
41 41 4.409850 -0.879585 -0.397052 0 0 0
42 42 2.939770 -0.905729 -0.403829 0 0 0
43 43 2.911124 -0.882104 -2.425974 0 0 0
44 44 -3.598600 1.624185 -2.454684 0 0 0
45 45 -3.615720 1.568962 -0.421553 0 0 0
46 46 -1.074682 1.625413 -0.420002 0 0 0
47 47 -1.088658 1.628107 -2.472715 0 0 0
48 48 0.909443 1.601809 -0.388441 0 0 0
49 49 0.906117 1.617579 -2.399651 0 0 0
50 50 2.946458 1.620384 -0.431739 0 0 0
51 51 4.462524 1.600632 -2.443624 0 0 0
52 52 4.428433 1.637650 -0.418104 0 0 0
53 53 2.888300 1.597164 -2.433680 0 0 0
54 54 -3.511416 3.635747 -2.488461 0 0 0
55 55 -3.559374 3.553545 -0.386619 0 0 0
56 56 -1.113121 3.687564 -2.370269 0 0 0
57 57 -1.038404 3.600824 -0.402366 0 0 0
58 58 0.971803 3.593272 -2.364545 0 0 0
59 59 0.825962 3.605645 -0.420977 0 0 0
60 60 2.921772 3.548054 -2.456192 0 0 0
61 61 2.931817 3.571349 -0.401714 0 0 0
62 62 4.431207 3.605826 -0.487639 0 0 0
63 63 4.432728 3.604837 -2.452264 0 0 0
64 64 -3.589412 -2.843253 1.599638 0 0 0
65 65 -3.645582 -4.395554 1.594826 0 0 0
66 66 -1.164492 -4.413201 1.684613 0 0 0
67 67 -1.043555 -2.900849 1.509053 0 0 0
68 68 0.934654 -4.347085 1.583353 0 0 0
69 69 0.929151 -2.946685 1.580032 0 0 0
70 70 2.910371 -4.323618 1.665399 0 0 0
71 71 2.884880 -2.826478 1.648957 0 0 0
72 72 4.363105 -2.929822 1.586042 0 0 0
73 73 4.415950 -4.377898 1.473723 0 0 0
74 74 -3.606801 -0.949595 1.577616 0 0 0
75 75 -1.021416 -0.873010 1.554139 0 0 0
76 76 0.870144 -0.950552 1.507716 0 0 0
77 77 4.413193 -0.922147 1.633608 0 0 0
78 78 2.898900 -0.877795 1.571246 0 0 0
79 79 -3.618858 1.652470 1.516536 0 0 0
80 80 -1.039878 1.538632 1.532647 0 0 0
81 81 1.008463 1.596234 1.594508 0 0 0
82 82 4.364545 1.580254 1.541259 0 0 0
83 83 2.858286 1.594086 1.595900 0 0 0
84 84 -3.499317 3.592194 1.541453 0 0 0
85 85 -1.040902 3.495064 1.572514 0 0 0
86 86 0.963147 3.625101 1.565521 0 0 0
87 87 2.889236 3.671303 1.664312 0 0 0
88 88 4.498190 3.608005 1.591616 0 0 0
89 89 -3.582819 -2.857139 3.495912 0 0 0
90 90 -3.565611 -4.374053 3.540684 0 0 0
91 91 -1.110394 -2.886641 3.567704 0 0 0
92 92 -1.104578 -4.348359 3.530719 0 0 0
93 93 0.986821 -2.857696 3.548302 0 0 0
94 94 0.909663 -4.374007 3.492530 0 0 0
95 95 2.886027 -2.922526 3.593706 0 0 0
96 96 2.830085 -4.429737 3.555763 0 0 0
97 97 4.433814 -4.357828 3.518357 0 0 0
98 98 4.443870 -2.776098 3.574556 0 0 0
99 99 -3.553041 -0.840017 3.534155 0 0 0
100 100 -1.120305 -0.874392 3.606331 0 0 0
101 101 1.041527 -0.927424 3.628857 0 0 0
102 102 2.928950 -0.854822 3.552208 0 0 0
103 103 4.406845 -0.906208 3.518364 0 0 0
104 104 -3.598807 1.584367 3.623566 0 0 0
105 105 -1.122704 1.538217 3.585280 0 0 0
106 106 0.891553 1.575629 3.617927 0 0 0
107 107 4.446178 1.575080 3.583937 0 0 0
108 108 2.880290 1.602277 3.584901 0 0 0
109 109 -4.942705 3.587695 3.609365 0 0 0
110 110 -3.508179 3.691097 3.552580 0 0 0
111 111 -1.223247 3.599808 3.622314 0 0 0
112 112 0.928469 3.628450 3.523018 0 0 0
113 113 2.749258 3.664335 3.486016 0 0 0
ITEM: TIMESTEP 
4
ITEM: NUMBER OF ATOMS
113
ITEM: BOX BOUNDS
-5.000000 5.000000
-5.000000 5.000000
-5.000000 5.000000
ITEM: ATOMS id type x y z ix iy iz
1 1 -3.698230 -4.363986 -4.612089 0 0 0
2 2 -3.624724 -4.409164 -3.148494 0 0 0
3 3 -3.560638 -2.861202 -3.112553 0 0 0
4 4 -1.213807 -4.360692 -4.659701 0 0 0
5 5 -1.159807 -2.885532 -3.107256 0 0 0
6 6 -1.057523 -4.314533 -3.147447 0 0 0
7 7 0.915294 -4.396092 -4.572210 0 0 0
8 8 0.958124 -2.893355 -3.180532 0 0 0
9 9 0.847308 -4.344677 -3.121358 0 0 0
10 10 2.872416 -4.322777 -4.722085 0 0 0
11 11 4.421815 -4.386221 -4.654419 0 0 0
12 12 2.944165 -2.875397 -3.125149 0 0 0
13 13 2.932909 -4.390369 -3.044060 0 0 0
14 14 4.396358 -4.407103 -3.109622 0 0 0
15 15 4.413876 -2.888554 -3.112416 0 0 0
16 16 -3.599729 -0.941755 -3.144085 0 0 0
17 17 -1.121077 -0.876877 -3.092289 0 0 0
18 18 0.946536 -0.940928 -3.109565 0 0 0
19 19 4.423760 -0.848397 -3.091931 0 0 0
20 20 2.878414 -0.882047 -3.103272 0 0 0
21 21 -3.629755 1.619671 -3.174112 0 0 0
22 22 -1.149777 1.428358 -4.715787 0 0 0
23 23 -1.110440 1.603512 -3.141735 0 0 0
24 24 1.011163 1.560246 -4.623202 0 0 0
25 25 0.920565 1.610530 -3.067582 0 0 0
26 26 2.821756 1.660657 -4.537292 0 0 0
27 27 2.886170 1.575459 -3.131157 0 0 0
28 28 4.474759 1.587338 -3.130862 0 0 0
29 29 -3.561446 3.633614 -4.655268 0 0 0
30 30 -3.487520 3.624094 -3.177530 0 0 0
31 31 -1.139484 3.619102 -4.630374 0 0 0
32 32 -1.103870 3.649905 -3.069418 0 0 0
33 33 0.927529 3.495670 -4.716730 0 0 0
34 34 0.985015 3.596486 -3.060959 0 0 0
35 35 4.524854 3.586005 -4.565005 0 0 0
36 36 2.917448 3.549215 -4.556578 0 0 0
37 37 4.445817 3.600562 -3.152418 0 0 0
38 38 2.937649 3.561772 -3.145368 0 0 0
39 39 -3.586814 -2.922380 -0.649882 0 0 0
40 40 -3.614080 -4.407815 -0.637690 0 0 0
41 41 -1.077026 -4.363565 -0.575397 0 0 0
42 42 -1.092025 -2.853810 -0.585156 0 0 0
43 43 0.906354 -2.957231 -0.618016 0 0 0
44 44 0.949748 -4.356779 -0.605040 0 0 0
45 45 4.460310 -2.927489 -0.636052 0 0 0
46 46 2.875035 -2.880111 -0.596085 0 0 0
47 47 2.888607 -4.399974 -0.635638 0 0 0
48 48 4.351442 -4.408850 -0.603485 0 0 0
49 49 -3.562837 -0.963747 -0.611003 0 0 0
50 50 -1.079433 -0.900442 -0.631257 0 0 0
51 51 0.949376 -0.859195 -0.666316 0 0 0
52 52 2.968667 -0.874140 -0.589328 0 0 0
53 53 4.414728 -0.894082 -0.613513 0 0 0
54 54 -3.608367 1.610093 -0.618890 0 0 0
55 55 -1.071376 1.640188 -0.624605 0 0 0
56 56 0.914287 1.654737 -0.542200 0 0 0
57 57 2.944480 1.626490 -0.618409 0 0 0
58 58 4.418185 1.631172 -0.602468 0 0 0
59 59 -3.539343 3.549412 -0.591231 0 0 0
60 60 -1.060657 3.597365 -0.611626 0 0 0
61 61 0.830425 3.606232 -0.593997 0 0 0
62 62 2.916641 3.590206 -0.593018 0 0 0
63 63 4.418249 3.623861 -0.690526 0 0 0
64 64 -3.589263 -2.858312 1.396515 0 0 0
65 65 -3.619368 -4.423992 1.404779 0 0 0
66 66 -1.044101 -2.904111 1.319710 0 0 0
67 67 -1.199225 -4.384713 1.484518 0 0 0
68 68 0.939934 -2.937653 1.400979 0 0 0
69 69 0.929282 -4.353876 1.380881 0 0 0
70 70 4.396237 -2.933929 1.425678 0 0 0
71 71 2.895037 -4.350957 1.467806 0 0 0
72 72 4.422618 -4.394289 1.315490 0 0 0
73 73 2.888293 -2.814114 1.462738 0 0 0
74 74 -3.624350 -0.926722 1.390313 0 0 0
75 75 -1.036107 -0.863743 1.415759 0 0 0
76 76 0.864285 -0.983248 1.355131 0 0 0
77 77 2.868854 -0.881872 1.396878 0 0 0
78 78 4.432282 -0.876366 1.440922 0 0 0
79 79 -3.653366 1.643672 1.392011 0 0 0
80 80 -1.071000 1.509905 1.372205 0 0 0
81 81 0.980950 1.544523 1.440556 0 0 0
82 82 2.899249 1.588113 1.421389 0 0 0
83 83 4.392555 1.563836 1.350200 0 0 0
84 84 -3.514022 3.610571 1.321605 0 0 0
85 85 -1.072145 3.576175 1.419420 0 0 0
86 86 1.022114 3.656758 1.373893 0 0 0
87 87 4.496328 3.613025 1.405963 0 0 0
88 88 2.877865 3.641648 1.470281 0 0 0
89 89 -3.628386 -2.863973 3.319424 0 0 0
90 90 -3.569189 -4.340919 3.347475 0 0 0
91 91 -1.095649 -2.932255 3.374106 0 0 0
92 92 -1.134845 -4.340745 3.328808 0 0 0
93 93 0.948418 -4.393684 3.321798 0 0 0
94 94 0.947744 -2.868500 3.324519 0 0 0
95 95 2.826810 -4.438224 3.385641 0 0 0
96 96 2.881445 -2.920243 3.419620 0 0 0
97 97 4.442955 -4.347383 3.302550 0 0 0
98 98 4.457254 -2.769974 3.423743 0 0 0
99 99 -3.588741 -0.807292 3.348527 0 0 0
100 100 -1.143503 -0.847916 3.359107 0 0 0
101 101 1.015749 -0.867622 3.425959 0 0 0
102 102 4.378989 -0.915789 3.317345 0 0 0
103 103 2.916948 -0.859058 3.367081 0 0 0
104 104 -3.536463 1.584804 3.401392 0 0 0
105 105 -1.135402 1.490678 3.399949 0 0 0
106 106 0.827976 1.537131 3.455510 0 0 0
107 107 4.436762 1.557109 3.412339 0 0 0
108 108 2.867687 1.577765 3.373667 0 0 0
109 109 -4.940434 3.561033 3.458765 0 0 0
110 110 -3.468548 3.664439 3.347615 0 0 0
111 111 -1.281149 3.600025 3.386654 0 0 0
112 112 0.949236 3.650431 3.384748 0 0 0
113 113 2.724559 3.711372 3.262179 0 0 0
ITEM: TIMESTEP 
5
ITEM: NUMBER OF ATOMS
113
ITEM: BOX BOUNDS
-5.000000 5.000000
-5.000000 5.000000
-5.000000 5.000000
ITEM: ATOMS id type x y z ix iy iz
1 1 -2.687613 -4.425450 -3.136878 0 0 0
2 2 -2.611648 -2.855360 -3.104290 0 0 0
3 3 -2.765303 -4.378660 -4.585781 0 0 0
4 4 -4.155534 -4.419632 -3.081427 0 0 0
5 5 -4.136207 -2.885743 -3.126522 0 0 0
6 6 -4.144769 -4.380911 -4.667703 0 0 0
7 7 -0.117715 -4.333659 -3.143498 0 0 0
8 8 -0.254038 -2.906422 -3.123994 0 0 0
9 9 -0.276124 -4.350334 -4.643282 0 0 0
10 10 1.821883 -4.372802 -3.125857 0 0 0
11 11 1.837086 -4.362350 -4.540598 0 0 0
12 12 1.884463 -2.922222 -3.182872 0 0 0
13 13 3.892767 -2.878695 -3.125287 0 0 0
14 14 3.872708 -4.386060 -3.050105 0 0 0
15 15 3.809728 -4.326624 -4.734353 0 0 0
16 16 -2.681878 -0.970944 -3.145135 0 0 0
17 17 -4.127374 -0.798501 -3.109750 0 0 0
18 18 -0.195748 -0.930159 -3.097741 0 0 0
19 19 1.924436 -0.997046 -3.108948 0 0 0
20 20 3.833355 -0.881571 -3.123782 0 0 0
21 21 -2.634789 1.633970 -3.222002 0 0 0
22 22 -4.096033 1.558480 -3.125295 0 0 0
23 23 -0.217034 1.585776 -3.155209 0 0 0
24 24 -0.195943 1.430005 -4.666032 0 0 0
25 25 1.834491 1.597114 -3.085332 0 0 0
26 26 1.949298 1.557729 -4.636957 0 0 0
27 27 3.766692 1.691144 -4.520217 0 0 0
28 28 3.818530 1.602532 -3.132139 0 0 0
29 29 -2.531357 3.621460 -3.162635 0 0 0
30 30 -2.632939 3.625748 -4.673773 0 0 0
31 31 -3.985322 3.591984 -4.580611 0 0 0
32 32 -4.109309 3.609944 -3.165713 0 0 0
33 33 -0.120966 3.642143 -3.072184 0 0 0
34 34 -0.211654 3.644024 -4.642270 0 0 0
35 35 1.856846 3.513450 -4.721409 0 0 0
36 36 1.920724 3.606817 -3.057366 0 0 0
37 37 3.849447 3.549139 -4.553323 0 0 0
38 38 3.897132 3.564916 -3.153782 0 0 0
39 39 -2.691969 -4.364839 -0.646365 0 0 0
40 40 -2.643510 -2.892334 -0.650605 0 0 0
41 41 -4.072110 -2.941759 -0.643629 0 0 0
42 42 -4.215848 -4.391852 -0.604285 0 0 0
43 43 -0.103778 -2.877557 -0.544291 0 0 0
44 44 -0.133394 -4.331568 -0.600473 0 0 0
45 45 1.843495 -2.955400 -0.602704 0 0 0
46 46 1.899092 -4.342191 -0.596536 0 0 0
47 47 3.819093 -2.844142 -0.613042 0 0 0
48 48 3.850245 -4.398751 -0.645064 0 0 0
49 49 -2.664459 -0.980256 -0.647332 0 0 0
50 50 -4.137248 -0.915233 -0.619096 0 0 0
51 51 -0.169646 -0.914619 -0.578627 0 0 0
52 52 1.856836 -0.884807 -0.621268 0 0 0
53 53 3.948261 -0.915599 -0.585534 0 0 0
54 54 -2.574710 1.644325 -0.573322 0 0 0
55 55 -4.123923 1.589830 -0.575664 0 0 0
56 56 -0.158996 1.650374 -0.651156 0 0 0
57 57 1.831109 1.675689 -0.528110 0 0 0
58 58 3.898808 1.620219 -0.611839 0 0 0
59 59 -2.619346 3.578534 -0.574896 0 0 0
60 60 -4.096765 3.622840 -0.687591 0 0 0
61 61 -0.146969 3.590180 -0.624666 0 0 0
62 62 1.756058 3.567939 -0.569196 0 0 0
63 63 3.830895 3.604791 -0.570493 0 0 0
64 64 -2.665391 -2.842226 1.417533 0 0 0
65 65 -2.657841 -4.409708 1.415425 0 0 0
66 66 -4.160257 -4.379535 1.305405 0 0 0
67 67 -4.159277 -2.930731 1.451615 0 0 0
68 68 -0.101431 -2.897370 1.330488 0 0 0
69 69 -0.251106 -4.381363 1.502572 0 0 0
70 70 1.863134 -4.412963 1.356188 0 0 0
71 71 1.845474 -2.921298 1.364347 0 0 0
72 72 3.836361 -4.335587 1.420133 0 0 0
73 73 3.832059 -2.838159 1.486602 0 0 0
74 74 -2.677583 -0.918838 1.371499 0 0 0
75 75 -4.148849 -0.847670 1.456950 0 0 0
76 76 -0.050946 -0.833966 1.443130 0 0 0
77 77 1.874621 -0.979843 1.298145 0 0 0
78 78 3.821590 -0.864703 1.374858 0 0 0
79 79 -2.657564 1.654894 1.359507 0 0 0
80 80 -4.181089 1.535804 1.382587 0 0 0
81 81 -0.125726 1.494737 1.316729 0 0 0
82 82 1.933375 1.537944 1.480144 0 0 0
83 83 3.881187 1.532356 1.415492 0 0 0
84 84 -2.598481 3.623323 1.325533 0 0 0
85 85 -4.085724 3.569726 1.405060 0 0 0
86 86 -0.122277 3.579580 1.431072 0 0 0
87 87 2.017904 3.618211 1.346628 0 0 0
88 88 3.825949 3.654134 1.505050 0 0 0
89 89 -2.641693 -4.333236 3.377119 0 0 0
90 90 -2.726989 -2.873727 3.333200 0 0 0
91 91 -4.123626 -2.753296 3.420279 0 0 0
92 92 -4.103388 -4.333922 3.284615 0 0 0
93 93 -0.183662 -4.303888 3.343544 0 0 0
94 94 -0.109451 -2.936860 3.373964 0 0 0
95 95 1.883898 -2.870116 3.336423 0 0 0
96 96 1.885183 -4.398345 3.322797 0 0 0
97 97 3.807057 -4.431931 3.422314 0 0 0
98 98 3.824858 -2.928575 3.398178 0 0 0
99 99 -2.658131 -0.756629 3.403303 0 0 0
100 100 -4.216538 -0.936864 3.345615 0 0 0
101 101 -0.208455 -0.837632 3.369144 0 0 0
102 102 1.951402 -0.872095 3.435833 0 0 0
103 103 3.861130 -0.901405 3.359602 0 0 0
104 104 -2.582283 1.555959 3.356311 0 0 0
105 105 -4.130748 1.541084 3.432982 0 0 0
106 106 -0.151088 1.486166 3.330105 0 0 0
107 107 1.805873 1.550860 3.487129 0 0 0
108 108 3.822268 1.588085 3.349345 0 0 0
109 109 -4.013516 3.550744 3.481849 0 0 0
110 110 -2.500795 3.646906 3.334595 0 0 0
111 111 -0.387940 3.665834 3.383286 0 0 0
112 112 1.931481 3.635034 3.457984 0 0 0
113 113 3.667092 3.762295 3.282894 0 0 0
ITEM: TIMESTEP 
6
ITEM: NUMBER OF ATOMS
113
ITEM: BOX BOUNDS
-5.000000 5.000000
-5.000000 5.000000
-5.000000 5.000000
ITEM: ATOMS id type x y z ix iy iz
1 1 -4.813483 -4.397710 -3.095312 0 0 0
2 2 -4.804341 -2.900277 -3.134623 0 0 0
3 3 -3.430587 -4.419834 -4.580135 0 0 0
4 4 -3.357111 -4.406596 -3.131502 0 0 0
5 5 -3.284832 -2.849811 -3.091002 0 0 0
6 6 -4.818184 -4.385489 -4.671272 0 0 0
7 7 -0.902755 -4.368737 -4.645614 0 0 0
8 8 -0.801551 -4.342770 -3.139017 0 0 0
9 9 -0.908599 -2.891346 -3.152549 0 0 0
10 10 1.135736 -4.337677 -4.558233 0 0 0
11 11 1.225758 -2.942599 -3.209093 0 0 0
12 12 1.132239 -4.364535 -3.129767 0 0 0
13 13 3.213584 -4.383194 -3.043296 0 0 0
14 14 3.251709 -2.859532 -3.115126 0 0 0
15 15 3.124802 -4.316377 -4.725092 0 0 0
16 16 -3.358773 -0.987256 -3.139926 0 0 0
17 17 -4.821989 -0.794123 -3.126652 0 0 0
18 18 -0.858122 -0.916745 -3.061582 0 0 0
19 19 1.296766 -0.945653 -3.108664 0 0 0
20 20 3.155067 -0.890286 -3.111724 0 0 0
21 21 -3.307638 1.603543 -3.254131 0 0 0
22 22 -4.739358 1.524187 -3.181655 0 0 0
23 23 -0.873751 1.592423 -3.158881 0 0 0
24 24 -0.830036 1.409670 -4.655909 0 0 0
25 25 1.180736 1.556398 -3.096895 0 0 0
26 26 1.276267 1.614716 -4.623346 0 0 0
27 27 3.113567 1.686379 -4.542162 0 0 0
28 28 3.187086 1.645744 -3.145009 0 0 0
29 29 -3.331294 3.637879 -4.645657 0 0 0
30 30 -3.203567 3.620502 -3.140567 0 0 0
31 31 -4.636843 3.591739 -4.585512 0 0 0
32 32 -4.792072 3.637143 -3.148922 0 0 0
33 33 -0.767219 3.598127 -3.062567 0 0 0