ITEM: TIMESTEP 
0
ITEM: NUMBER OF ATOMS
125
ITEM: BOX BOUNDS
-5.000000 5.000000
-5.000000 5.000000
-5.000000 5.000000
ITEM: ATOMS id type x y z ix iy iz
1 1 4.000000 4.000000 4.000000 0 0 0
2 2 2.000000 4.000000 4.000000 0 0 0
3 3 0.000000 4.000000 4.000000 0 0 0
4 4 -2.000000 4.000000 4.000000 0 0 0
5 5 -4.000000 4.000000 4.000000 0 0 0
6 6 4.000000 2.000000 4.000000 0 0 0
7 7 2.000000 2.000000 4.000000 0 0 0
8 8 0.000000 2.000000 4.000000 0 0 0
9 9 -2.000000 2.000000 4.000000 0 0 0
10 10 -4.000000 2.000000 4.000000 0 0 0
11 11 4.000000 0.000000 4.000000 0 0 0
12 12 2.000000 0.000000 4.000000 0 0 0
13 13 0.000000 0.000000 4.000000 0 0 0
14 14 -2.000000 0.000000 4.000000 0 0 0
15 15 -4.000000 0.000000 4.000000 0 0 0
16 16 4.000000 -2.000000 4.000000 0 0 0
17 17 2.000000 -2.000000 4.000000 0 0 0
18 18 0.000000 -2.000000 4.000000 0 0 0
19 19 -2.000000 -2.000000 4.000000 0 0 0
20 20 -4.000000 -2.000000 4.000000 0 0 0
21 21 4.000000 -4.000000 4.000000 0 0 0
22 22 2.000000 -4.000000 4.000000 0 0 0
23 23 0.000000 -4.000000 4.000000 0 0 0
24 24 -2.000000 -4.000000 4.000000 0 0 0
25 25 -4.000000 -4.000000 4.000000 0 0 0
26 26 4.000000 4.000000 2.000000 0 0 0
27 27 2.000000 4.000000 2.000000 0 0 0
28 28 0.000000 4.000000 2.000000 0 0 0
29 29 -2.000000 4.000000 2.000000 0 0 0
30 30 -4.000000 4.000000 2.000000 0 0 0
31 31 4.000000 2.000000 2.000000 0 0 0
32 32 2.000000 2.000000 2.000000 0 0 0
33 33 0.000000 2.000000 2.000000 0 0 0
34 34 -2.000000 2.000000 2.000000 0 0 0
35 35 -4.000000 2.000000 2.000000 0 0 0
36 36 4.000000 0.000000 2.000000 0 0 0
37 37 2.000000 0.000000 2.000000 0 0 0
38 38 0.000000 0.000000 2.000000 0 0 0
39 39 -2.000000 0.000000 2.000000 0 0 0
40 40 -4.000000 0.000000 2.000000 0 0 0
41 41 4.000000 -2.000000 2.000000 0 0 0
42 42 2.000000 -2.000000 2.000000 0 0 0
43 43 0.000000 -2.000000 2.000000 0 0 0
44 44 -2.000000 -2.000000 2.000000 0 0 0
45 45 -4.000000 -2.000000 2.000000 0 0 0
46 46 4.000000 -4.000000 2.000000 0 0 0
47 47 2.000000 -4.000000 2.000000 0 0 0
48 48 0.000000 -4.000000 2.000000 0 0 0
49 49 -2.000000 -4.000000 2.000000 0 0 0
50 50 -4.000000 -4.000000 2.000000 0 0 0
51 51 4.000000 4.000000 0.000000 0 0 0
52 52 2.000000 4.000000 0.000000 0 0 0
53 53 0.000000 4.000000 0.000000 0 0 0
54 54 -2.000000 4.000000 0.000000 0 0 0
55 55 -4.000000 4.000000 0.000000 0 0 0
56 56 4.000000 2.000000 0.000000 0 0 0
57 57 2.000000 2.000000 0.000000 0 0 0
58 58 0.000000 2.000000 0.000000 0 0 0
59 59 -2.000000 2.000000 0.000000 0 0 0
60 60 -4.000000 2.000000 0.000000 0 0 0
61 61 4.000000 0.000000 0.000000 0 0 0
62 62 2.000000 0.000000 0.000000 0 0 0
63 63 0.000000 0.000000 0.000000 0 0 0
64 64 -2.000000 0.000000 0.000000 0 0 0
65 65 -4.000000 0.000000 0.000000 0 0 0
66 66 4.000000 -2.000000 0.000000 0 0 0
67 67 2.000000 -2.000000 0.000000 0 0 0
68 68 0.000000 -2.000000 0.000000 0 0 0
69 69 -2.000000 -2.000000 0.000000 0 0 0
70 70 -4.000000 -2.000000 0.000000 0 0 0
71 71 4.000000 -4.000000 0.000000 0 0 0
72 72 2.000000 -4.000000 0.000000 0 0 0
73 73 0.000000 -4.000000 0.000000 0 0 0
74 74 -2.000000 -4.000000 0.000000 0 0 0
75 75 -4.000000 -4.000000 0.000000 0 0 0
76 76 4.000000 4.000000 -2.000000 0 0 0
77 77 2.000000 4.000000 -2.000000 0 0 0
78 78 0.000000 4.000000 -2.000000 0 0 0
79 79 -2.000000 4.000000 -2.000000 0 0 0
80 80 -4.000000 4.000000 -2.000000 0 0 0
81 81 4.000000 2.000000 -2.000000 0 0 0
82 82 2.000000 2.000000 -2.000000 0 0 0
83 83 0.000000 2.000000 -2.000000 0 0 0
84 84 -2.000000 2.000000 -2.000000 0 0 0
85 85 -4.000000 2.000000 -2.000000 0 0 0
86 86 4.000000 0.000000 -2.000000 0 0 0
87 87 2.000000 0.000000 -2.000000 0 0 0
88 88 0.000000 0.000000 -2.000000 0 0 0
89 89 -2.000000 0.000000 -2.000000 0 0 0
90 90 -4.000000 0.000000 -2.000000 0 0 0
91 91 4.000000 -2.000000 -2.000000 0 0 0
92 92 2.000000 -2.000000 -2.000000 0 0 0
93 93 0.000000 -2.000000 -2.000000 0 0 0
94 94 -2.000000 -2.000000 -2.000000 0 0 0
95 95 -4.000000 -2.000000 -2.000000 0 0 0
96 96 4.000000 -4.000000 -2.000000 0 0 0
97 97 2.000000 -4.000000 -2.000000 0 0 0
98 98 0.000000 -4.000000 -2.000000 0 0 0
99 99 -2.000000 -4.000000 -2.000000 0 0 0
100 100 -4.000000 -4.000000 -2.000000 0 0 0
101 101 4.000000 4.000000 -4.000000 0 0 0
102 102 2.000000 4.000000 -4.000000 0 0 0
103 103 0.000000 4.000000 -4.000000 0 0 0
104 104 -2.000000 4.000000 -4.000000 0 0 0
105 105 -4.000000 4.000000 -4.000000 0 0 0
106 106 4.000000 2.000000 -4.000000 0 0 0
107 107 2.000000 2.000000 -4.000000 0 0 0
108 108 0.000000 2.000000 -4.000000 0 0 0
109 109 -2.000000 2.000000 -4.000000 0 0 0
110 110 -4.000000 2.000000 -4.000000 0 0 0
111 111 4.000000 0.000000 -4.000000 0 0 0
112 112 2.000000 0.000000 -4.000000 0 0 0
113 113 0.000000 0.000000 -4.000000 0 0 0
114 114 -2.000000 0.000000 -4.000000 0 0 0
115 115 -4.000000 0.000000 -4.000000 0 0 0
116 116 4.000000 -2.000000 -4.000000 0 0 0
117 117 2.000000 -2.000000 -4.000000 0 0 0
118 118 0.000000 -2.000000 -4.000000 0 0 0
119 119 -2.000000 -2.000000 -4.000000 0 0 0
120 120 -4.000000 -2.000000 -4.000000 0 0 0
121 121 4.000000 -4.000000 -4.000000 0 0 0
122 122 2.000000 -4.000000 -4.000000 0 0 0
123 123 0.000000 -4.000000 -4.000000 0 0 0
124 124 -2.000000 -4.000000 -4.000000 0 0 0
125 125 -4.000000 -4.000000 -4.000000 0 0 0
ITEM: TIMESTEP 
1
ITEM: NUMBER OF ATOMS
125
ITEM: BOX BOUNDS
-5.000000 5.000000
-5.000000 5.000000
-5.000000 5.000000
ITEM: ATOMS id type x y z ix iy iz
1 1 -3.909737 -3.826893 -4.886281 0 0 0
2 2 -0.829649 -4.599314 -3.510963 0 0 0
3 3 1.569503 -4.929821 -3.543785 0 0 0
4 4 0.293931 -4.000000 -4.000000 0 0 0
5 5 4.337287 -3.673134 -2.736835 0 0 0
6 6 -3.541887 -2.147213 -3.307856 0 0 0
7 7 -3.706069 0.000000 -4.000000 0 0 0
8 8 -1.706069 -2.000000 -4.000000 0 0 0
9 9 -1.706069 0.000000 -4.000000 0 0 0
10 10 1.566486 -1.845784 -2.979340 0 0 0
11 11 0.293931 -2.000000 -4.000000 0 0 0
12 12 0.293931 0.000000 -4.000000 0 0 0
13 13 3.588221 -2.188940 -2.961291 0 0 0
14 14 4.076500 -0.185588 -4.252459 0 0 0
15 15 2.660122 -0.014042 -3.931795 0 0 0
16 16 -4.284015 1.277892 -3.134525 0 0 0
17 17 -1.942610 1.747005 -4.564182 0 0 0
18 18 -0.075058 1.626701 -3.082943 0 0 0
19 19 4.937298 1.794363 -2.739927 0 0 0
20 20 2.696997 1.559605 -3.869118 0 0 0
21 21 -2.929502 3.275186 -3.917302 0 0 0
22 22 -1.654327 4.585434 -3.809940 0 0 0
23 23 2.313718 4.348216 -3.733790 0 0 0
24 24 0.290155 4.735332 -4.071383 0 0 0
25 25 3.752984 4.765222 -3.832274 0 0 0
26 26 -3.441449 -4.343831 -0.689152 0 0 0
27 27 -2.891515 -3.685451 -1.471789 0 0 0
28 28 -1.474084 -3.378104 -0.052838 0 0 0
29 29 -1.706069 -4.000000 -2.000000 0 0 0
30 30 2.385109 -3.622207 -0.899030 0 0 0
31 31 2.293931 -4.000000 0.000000 0 0 0
32 32 0.130090 -3.262312 -2.023809 0 0 0
33 33 0.293931 -4.000000 0.000000 0 0 0
34 34 3.692025 -3.653145 -0.767471 0 0 0
35 35 4.601426 -4.863497 -2.063726 0 0 0
36 36 -4.215746 -0.807427 -0.437092 0 0 0
37 37 -3.706069 -2.000000 -2.000000 0 0 0
38 38 -3.706069 0.000000 -2.000000 0 0 0
39 39 -3.706069 -2.000000 0.000000 0 0 0
40 40 -1.564146 -0.141478 -0.396203 0 0 0
41 41 -1.706069 -2.000000 0.000000 0 0 0
42 42 -2.188310 -0.539428 -2.388319 0 0 0
43 43 -1.706069 -2.000000 -2.000000 0 0 0
44 44 2.293931 -2.000000 0.000000 0 0 0
45 45 2.293931 0.000000 0.000000 0 0 0
46 46 1.656098 -0.448961 -2.051829 0 0 0
47 47 0.293931 0.000000 0.000000 0 0 0
48 48 0.293931 -2.000000 -2.000000 0 0 0
49 49 0.293931 0.000000 -2.000000 0 0 0
50 50 0.293931 -2.000000 0.000000 0 0 0
51 51 4.391641 -0.208962 -0.238861 0 0 0
52 52 4.293931 -2.000000 -2.000000 0 0 0
53 53 4.374314 -0.191109 -2.284758 0 0 0
54 54 4.335459 -1.571148 -0.755769 0 0 0
55 55 2.738598 -2.378475 -2.418455 0 0 0
56 56 -4.152332 2.354262 -1.924211 0 0 0
57 57 -4.133940 2.076235 -0.616130 0 0 0
58 58 -1.706069 2.000000 0.000000 0 0 0
59 59 -1.655735 1.993258 -1.689853 0 0 0
60 60 2.275011 2.217940 -0.004602 0 0 0
61 61 2.293931 2.000000 -2.000000 0 0 0
62 62 0.293931 2.000000 0.000000 0 0 0
63 63 0.053901 1.678290 -1.510460 0 0 0
64 64 3.459956 0.804886 -0.920862 0 0 0
65 65 3.904409 2.024692 -0.266840 0 0 0
66 66 -3.564587 3.049897 -2.362040 0 0 0
67 67 -4.478228 4.658961 -0.134052 0 0 0
68 68 -1.706069 4.000000 0.000000 0 0 0
69 69 -0.865177 3.760528 -2.249249 0 0 0
70 70 2.170268 4.558339 -2.404013 0 0 0
71 71 0.132026 4.789769 -0.618131 0 0 0
72 72 0.188946 4.354577 -2.119148 0 0 0
73 73 3.752909 3.505420 -0.244533 0 0 0
74 74 4.293931 4.000000 -2.000000 0 0 0
75 75 2.672254 4.495018 -0.196348 0 0 0
76 76 -4.006910 -3.781041 2.124880 0 0 0
77 77 -1.562926 -3.021420 1.208007 0 0 0
78 78 2.309379 -2.671543 0.839809 0 0 0
79 79 0.293931 -4.000000 2.000000 0 0 0
80 80 4.915470 -3.494212 1.012983 0 0 0
81 81 -3.591621 -2.117269 2.155645 0 0 0
82 82 -3.593567 -0.642761 2.413715 0 0 0
83 83 -0.462743 -1.739608 2.469717 0 0 0
84 84 -1.831573 -1.911723 2.208680 0 0 0
85 85 -1.706069 0.000000 2.000000 0 0 0
86 86 2.086463 -0.532118 2.392772 0 0 0
87 87 0.293931 0.000000 2.000000 0 0 0
88 88 4.293931 0.000000 2.000000 0 0 0
89 89 3.695036 -1.700865 2.203639 0 0 0
90 90 2.785934 -1.756510 2.246490 0 0 0
91 91 -3.615848 1.521066 1.513509 0 0 0
92 92 -1.452553 2.422935 1.566113 0 0 0
93 93 0.286197 2.094558 2.456899 0 0 0
94 94 3.098180 1.273228 2.310636 0 0 0
95 95 2.699214 2.122729 1.323099 0 0 0
96 96 -4.279501 2.572653 0.590461 0 0 0
97 97 -0.187242 3.963339 2.071548 0 0 0
98 98 -1.378143 3.233539 2.272700 0 0 0
99 99 2.372335 4.777893 0.904563 0 0 0
100 100 3.381787 4.852912 1.590214 0 0 0
101 101 -4.705924 -3.910089 4.543493 0 0 0
102 102 -0.538000 -2.728575 3.295040 0 0 0
103 103 -1.839211 -4.047207 4.642859 0 0 0
104 104 2.483348 -3.772359 3.453795 0 0 0
105 105 4.227973 -3.506772 4.481803 0 0 0
106 106 -3.706069 0.000000 4.000000 0 0 0
107 107 -3.422966 -2.341171 4.923041 0 0 0
108 108 -1.706069 0.000000 4.000000 0 0 0
109 109 -1.467471 -1.891958 4.880956 0 0 0
110 110 1.104342 -1.542895 3.562648 0 0 0
111 111 1.825885 -2.488468 3.772106 0 0 0
112 112 0.293931 0.000000 4.000000 0 0 0
113 113 0.234149 -2.127795 3.665938 0 0 0
114 114 3.717499 -2.134936 3.874876 0 0 0
115 115 4.881509 -0.820361 3.630927 0 0 0
116 116 -3.954148 1.330307 4.834462 0 0 0
117 117 -1.547275 1.343797 3.869906 0 0 0
118 118 1.935963 2.149056 2.776364 0 0 0
119 119 0.106525 1.738666 4.300085 0 0 0
120 120 3.891510 0.382329 3.359430 0 0 0
121 121 -3.309671 4.695680 3.541097 0 0 0
122 122 -1.723634 3.862547 3.584074 0 0 0
123 123 2.084152 4.697836 4.309245 0 0 0
124 124 0.293931 4.000000 4.000000 0 0 0
125 125 4.964604 3.705971 3.134016 0 0 0
ITEM: TIMESTEP 
2
ITEM: NUMBER OF ATOMS
125
ITEM: BOX BOUNDS
-5.000000 5.000000
-5.000000 5.000000
-5.000000 5.000000
ITEM: ATOMS id type x y z ix iy iz
1 1 -3.829879 -3.182193 -4.019334 0 0 0
2 2 -3.527708 -4.859790 -3.920105 0 0 0
3 3 2.274885 -3.236415 -3.733207 0 0 0
4 4 0.726261 -4.610985 -3.909453 0 0 0
5 5 2.313718 -4.741608 -3.733790 0 0 0
6 6 3.363214 -4.553170 -3.232184 0 0 0
7 7 -3.342121 -0.904912 -3.951476 0 0 0
8 8 -0.883457 -0.324593 -4.138302 0 0 0
9 9 -1.706069 -1.089823 -4.000000 0 0 0
10 10 -0.986942 -2.004011 -2.714280 0 0 0
11 11 1.639873 -0.914048 -3.733172 0 0 0
12 12 0.139144 -0.902386 -4.363368 0 0 0
13 13 0.632406 -2.438262 -4.949619 0 0 0
14 14 3.273057 -0.648727 -2.974398 0 0 0
15 15 4.606333 -2.101992 -2.851103 0 0 0
16 16 -4.728631 1.259107 -3.822526 0 0 0
17 17 -3.706069 0.910176 -4.000000 0 0 0
18 18 -0.370868 2.430717 -4.095507 0 0 0
19 19 0.293931 0.910176 -4.000000 0 0 0
20 20 4.554630 1.861451 -4.440844 0 0 0
21 21 3.434680 0.137814 -4.481716 0 0 0
22 22 2.660122 0.896135 -3.931795 0 0 0
23 23 -0.766179 4.229926 -3.655405 0 0 0
24 24 -0.993151 3.375278 -4.442034 0 0 0
25 25 3.327465 3.101727 -3.100672 0 0 0
26 26 -2.891515 -2.775274 -1.471789 0 0 0
27 27 -3.441449 -3.433654 -0.689152 0 0 0
28 28 -4.478228 -4.430862 -0.134052 0 0 0
29 29 -1.727106 -2.734043 -1.206433 0 0 0
30 30 -0.832538 -4.209497 -1.673180 0 0 0
31 31 0.293931 -3.089823 0.000000 0 0 0
32 32 2.385109 -2.712030 -0.899030 0 0 0
33 33 2.293931 -3.089823 0.000000 0 0 0
34 34 0.188946 -4.735247 -2.119148 0 0 0
35 35 0.132026 -4.300055 -0.618131 0 0 0
36 36 2.170268 -4.531485 -2.404013 0 0 0
37 37 4.519438 -3.854684 -1.567906 0 0 0
38 38 3.726006 -2.561060 -1.086600 0 0 0
39 39 2.672254 -4.594805 -0.196348 0 0 0
40 40 4.006305 -4.841877 -0.216732 0 0 0
41 41 -3.550882 -0.012509 -0.304467 0 0 0
42 42 -3.706069 -1.089823 0.000000 0 0 0
43 43 -3.195954 -1.161119 -1.555005 0 0 0
44 44 -1.791768 -0.424767 -1.921570 0 0 0
45 45 -1.706069 -1.089823 0.000000 0 0 0
46 46 -1.474084 -2.467928 -0.052838 0 0 0
47 47 0.967959 -0.156458 -1.036831 0 0 0
48 48 0.293931 -1.089823 0.000000 0 0 0
49 49 2.293931 -1.089823 0.000000 0 0 0
50 50 0.523354 -1.762471 -1.495217 0 0 0
51 51 3.471356 -1.103642 -1.195303 0 0 0
52 52 4.293931 -1.089823 -2.000000 0 0 0
53 53 2.738598 -1.468299 -2.418455 0 0 0
54 54 -3.318051 0.903162 -2.213691 0 0 0
55 55 -1.010310 1.924407 -0.160524 0 0 0
56 56 -1.466034 0.884731 -0.641158 0 0 0
57 57 -2.188310 0.370749 -2.388319 0 0 0
58 58 2.293931 0.910176 0.000000 0 0 0
59 59 0.293931 0.910176 0.000000 0 0 0
60 60 0.376477 0.828476 -1.436598 0 0 0
61 61 1.656098 0.461215 -2.051829 0 0 0
62 62 4.436316 1.111646 -1.239681 0 0 0
63 63 4.374314 0.719068 -2.284758 0 0 0
64 64 4.391641 0.701214 -0.238861 0 0 0
65 65 -2.653407 4.229166 -2.125718 0 0 0
66 66 -2.551616 2.651137 -0.836324 0 0 0
67 67 -3.952916 3.226993 -2.185641 0 0 0
68 68 -1.706069 4.910176 0.000000 0 0 0
69 69 -1.107589 3.257198 -1.685637 0 0 0
70 70 2.293931 2.910176 -2.000000 0 0 0
71 71 2.275011 3.128117 -0.004602 0 0 0
72 72 0.293931 2.910176 0.000000 0 0 0
73 73 0.053901 2.588467 -1.510460 0 0 0
74 74 4.259081 4.527312 -2.159440 0 0 0
75 75 4.504845 2.583962 -0.499091 0 0 0
76 76 -2.156154 -2.562233 1.603006 0 0 0
77 77 0.378727 -3.227833 1.929331 0 0 0
78 78 2.372335 -4.311931 0.904563 0 0 0
79 79 4.536461 -3.320590 0.288969 0 0 0
80 80 4.190185 -4.581006 1.337422 0 0 0
81 81 -2.993567 -0.074844 2.083366 0 0 0
82 82 -4.328313 -0.011262 1.632987 0 0 0
83 83 -4.046278 -2.432902 0.641185 0 0 0
84 84 -0.504928 -0.676034 2.306957 0 0 0
85 85 -1.518647 -0.784858 1.934546 0 0 0
86 86 1.813480 -1.895720 0.468558 0 0 0
87 87 2.918437 -1.316628 1.878402 0 0 0
88 88 3.695036 -0.790688 2.203639 0 0 0
89 89 -1.505757 0.715092 1.899390 0 0 0
90 90 1.875808 2.318601 1.424803 0 0 0
91 91 2.062589 0.548456 2.256628 0 0 0
92 92 0.293931 0.910176 2.000000 0 0 0
93 93 3.063371 1.405520 2.351625 0 0 0
94 94 3.777902 0.635842 2.238816 0 0 0
95 95 -3.586960 3.651720 0.286231 0 0 0
96 96 -4.808944 2.964870 1.931523 0 0 0
97 97 -0.187242 4.873515 2.071548 0 0 0
98 98 -1.539594 4.462314 2.006195 0 0 0
99 99 -2.146599 2.968892 1.740085 0 0 0
100 100 2.699214 3.032906 1.323099 0 0 0
101 101 -4.523816 -2.595755 3.896319 0 0 0
102 102 -0.729546 -2.758306 4.742841 0 0 0
103 103 -1.943445 -4.434179 2.660024 0 0 0
104 104 2.483348 -2.862183 3.453795 0 0 0
105 105 2.205139 -4.291502 4.316979 0 0 0
106 106 -2.795672 -0.977822 4.803765 0 0 0
107 107 -1.467471 -0.981782 4.880956 0 0 0
108 108 -0.538000 -1.818398 3.295040 0 0 0
109 109 0.234149 -1.217619 3.665938 0 0 0
110 110 1.825885 -1.578292 3.772106 0 0 0
111 111 1.104342 -0.632719 3.562648 0 0 0
112 112 4.415078 -0.757875 4.825048 0 0 0
113 113 4.070292 -0.202396 3.774014 0 0 0
114 114 2.663204 -2.159824 2.722017 0 0 0
115 115 -3.706069 0.910176 4.000000 0 0 0
116 116 -2.080979 2.476274 3.236971 0 0 0
117 117 -1.512896 0.153478 4.174395 0 0 0
118 118 2.431342 1.886651 3.582982 0 0 0
119 119 0.742208 0.723663 4.507927 0 0 0
120 120 4.415998 1.602276 4.507051 0 0 0
121 121 -3.690585 4.160598 4.542697 0 0 0
122 122 -3.160724 2.537930 4.991987 0 0 0
123 123 0.699102 4.082109 3.799029 0 0 0
124 124 0.078261 3.102176 3.858152 0 0 0
125 125 4.802363 4.733291 3.834738 0 0 0
ITEM: TIMESTEP 
3
ITEM: NUMBER OF ATOMS
125
ITEM: BOX BOUNDS
-5.000000 5.000000
-5.000000 5.000000
-5.000000 5.000000
ITEM: ATOMS id type x y z ix iy iz
1 1 -4.786601 -4.136957 -3.173190 0 0 0
2 2 -0.797606 -4.088523 -4.549241 0 0 0
3 3 1.261173 -4.741608 -3.733790 0 0 0
4 4 1.222340 -3.236415 -3.733207 0 0 0
5 5 3.207214 -4.744688 -3.059619 0 0 0
6 6 4.613738 -3.679790 -4.126962 0 0 0
7 7 -3.284919 -0.373529 -3.135545 0 0 0
8 8 -2.098364 -1.907756 -2.985826 0 0 0
9 9 -1.936003 -0.324593 -4.138302 0 0 0
10 10 -0.343305 -1.668398 -4.854252 0 0 0
11 11 -0.913401 -0.902386 -4.363368 0 0 0
12 12 0.587328 -0.914048 -3.733172 0 0 0
13 13 1.481738 -0.156506 -4.172346 0 0 0
14 14 2.963198 -1.383700 -2.532736 0 0 0
15 15 4.863652 -1.271405 -4.517460 0 0 0
16 16 -3.619821 1.288063 -3.053103 0 0 0
17 17 -2.406110 1.775424 -3.843950 0 0 0
18 18 -0.614470 0.840950 -4.518914 0 0 0
19 19 2.382135 0.137814 -4.481716 0 0 0
20 20 1.607577 0.896135 -3.931795 0 0 0
21 21 3.140714 1.758622 -4.503539 0 0 0
22 22 4.129603 1.162706 -3.386404 0 0 0
23 23 -2.025954 3.740795 -4.789744 0 0 0
24 24 -1.494236 4.563099 -4.031043 0 0 0
25 25 2.813371 2.623042 -3.478531 0 0 0
26 26 -4.946253 -2.821156 -0.962524 0 0 0
27 27 -4.090948 -3.675189 -0.379420 0 0 0
28 28 -3.015728 -2.991631 -1.072381 0 0 0
29 29 -2.137645 -4.345337 -1.695071 0 0 0
30 30 -0.863599 -4.735247 -2.119148 0 0 0
31 31 -0.758614 -3.089823 0.000000 0 0 0
32 32 -0.920519 -4.300055 -0.618131 0 0 0
33 33 1.241386 -3.089823 0.000000 0 0 0
34 34 1.117723 -4.531485 -2.404013 0 0 0
35 35 1.332564 -2.712030 -0.899030 0 0 0
36 36 1.619708 -4.594805 -0.196348 0 0 0
37 37 3.466893 -3.854684 -1.567906 0 0 0
38 38 2.900543 -4.690635 -1.097155 0 0 0
39 39 2.673460 -2.561060 -1.086600 0 0 0
40 40 4.469227 -4.430862 -0.134052 0 0 0
41 41 -4.603427 -0.012509 -0.304467 0 0 0
42 42 -4.758614 -1.089823 0.000000 0 0 0
43 43 -4.013962 -1.396181 -1.275252 0 0 0
44 44 -3.372530 -0.751269 -1.564509 0 0 0
45 45 -2.758614 -1.089823 0.000000 0 0 0
46 46 -2.526629 -2.467928 -0.052838 0 0 0
47 47 -0.084586 -0.156458 -1.036831 0 0 0
48 48 -0.758614 -1.089823 0.000000 0 0 0
49 49 0.185858 -1.599550 -0.356088 0 0 0
50 50 1.241386 -1.089823 0.000000 0 0 0
51 51 1.686053 -1.468299 -2.418455 0 0 0
52 52 2.418811 -1.103642 -1.195303 0 0 0
53 53 3.524832 -0.474918 -1.850890 0 0 0
54 54 -4.248390 2.068885 -2.448533 0 0 0
55 55 -2.518579 0.884731 -0.641158 0 0 0
56 56 -2.922439 0.512065 -2.043170 0 0 0
57 57 -2.062856 1.924407 -0.160524 0 0 0
58 58 -0.758614 0.910176 0.000000 0 0 0
59 59 -0.676068 0.828476 -1.436598 0 0 0
60 60 0.740686 0.601457 -1.271798 0 0 0
61 61 0.557258 1.107296 -2.342338 0 0 0
62 62 3.321769 0.719068 -2.284758 0 0 0
63 63 3.383771 1.111646 -1.239681 0 0 0
64 64 3.339095 0.701214 -0.238861 0 0 0
65 65 -3.604162 2.651137 -0.836324 0 0 0
66 66 -3.656759 3.111999 -1.885314 0 0 0
67 67 -2.758614 4.910176 0.000000 0 0 0
68 68 -2.336259 3.840646 -1.445635 0 0 0
69 69 -0.758614 2.910176 0.000000 0 0 0
70 70 -0.998645 2.588467 -1.510460 0 0 0
71 71 1.222465 3.128117 -0.004602 0 0 0
72 72 0.326352 3.329869 -2.275678 0 0 0
73 73 3.152954 4.618062 -1.956538 0 0 0
74 74 3.307676 2.671741 -1.179843 0 0 0
75 75 4.994538 3.226993 -2.185641 0 0 0
76 76 -2.583114 -2.592760 1.792356 0 0 0
77 77 -0.747287 -3.571240 1.541058 0 0 0
78 78 0.000434 -4.003596 0.340747 0 0 0
79 79 3.608473 -3.732491 0.261528 0 0 0
80 80 3.524420 -4.571684 1.684842 0 0 0
81 81 -4.046112 -0.074844 2.083366 0 0 0
82 82 -1.640695 -0.810717 1.698301 0 0 0
83 83 -2.360551 -0.126402 2.250528 0 0 0
84 84 0.566619 -1.614233 1.879436 0 0 0
85 85 1.820344 -1.351625 1.269524 0 0 0
86 86 3.614050 -0.489812 1.931949 0 0 0
87 87 4.387384 -2.434766 0.692271 0 0 0
88 88 4.619142 -0.011262 1.632987 0 0 0
89 89 -2.344461 1.263514 2.365310 0 0 0
90 90 -0.758614 0.910176 2.000000 0 0 0
91 91 1.351814 0.822516 1.152262 0 0 0
92 92 0.408620 0.649610 2.425991 0 0 0
93 93 2.010826 1.405520 2.351625 0 0 0
94 94 2.725357 0.635842 2.238816 0 0 0
95 95 -2.867443 2.550573 1.599786 0 0 0
96 96 -2.592139 4.462314 2.006195 0 0 0
97 97 -1.239787 4.873515 2.071548 0 0 0
98 98 1.603972 2.652385 1.546724 0 0 0
99 99 4.024319 4.522759 1.997898 0 0 0
100 100 4.839637 3.407584 0.450396 0 0 0
101 101 -4.556136 -4.165258 3.989661 0 0 0
102 102 -2.822545 -4.075770 3.293438 0 0 0
103 103 -1.151007 -2.660881 4.310173 0 0 0
104 104 0.561505 -2.878394 3.103795 0 0 0
105 105 0.680422 -4.127361 3.546976 0 0 0
106 106 -3.848218 -0.977822 4.803765 0 0 0
107 107 -2.723893 -1.210232 4.124981 0 0 0
108 108 -1.593155 -2.019366 2.688909 0 0 0
109 109 -0.005127 -0.109467 2.958105 0 0 0
110 110 -0.818397 -1.217619 3.665938 0 0 0
111 111 0.784680 -2.298564 3.799150 0 0 0
112 112 1.483428 -2.239592 2.704295 0 0 0
113 113 2.859548 -0.119243 4.317224 0 0 0
114 114 3.184384 -0.094723 3.432990 0 0 0
115 115 -3.997606 2.034050 3.982831 0 0 0
116 116 -3.211656 2.026089 3.003878 0 0 0
117 117 -3.271842 0.192385 3.489034 0 0 0
118 118 1.264517 2.111140 3.862416 0 0 0
119 119 0.939728 0.349470 4.939280 0 0 0
120 120 2.939773 1.599140 3.364301 0 0 0
121 121 -3.706004 4.542537 4.603432 0 0 0
122 122 -4.213269 2.537930 4.991987 0 0 0
123 123 -0.279283 4.301004 4.554191 0 0 0
124 124 -0.974285 3.102176 3.858152 0 0 0
125 125 3.599958 4.734486 4.836659 0 0 0
ITEM: TIMESTEP 
4
ITEM: NUMBER OF ATOMS
125
ITEM: BOX BOUNDS
-5.000000 5.000000
-5.000000 5.000000
-5.000000 5.000000
ITEM: ATOMS id type x y z ix iy iz
1 1 -2.910636 -3.281433 -3.514539 0 0 0
2 2 -0.532131 -3.718846 -4.418186 0 0 0
3 3 -1.219671 -4.266037 -4.703005 0 0 0
4 4 1.016761 -3.309326 -3.713868 0 0 0
5 5 2.930275 -3.277788 -3.599969 0 0 0
6 6 4.167999 -2.571160 -3.259209 0 0 0
7 7 -0.343305 -0.454638 -4.854252 0 0 0
8 8 -1.672181 -0.503735 -3.226480 0 0 0
9 9 0.686139 -0.561441 -4.597783 0 0 0
10 10 0.850188 -2.340238 -3.446655 0 0 0
11 11 4.513173 -1.073399 -4.177958 0 0 0
12 12 2.963198 -0.169940 -2.532736 0 0 0
13 13 -4.582726 2.337030 -2.818118 0 0 0
14 14 -4.283703 0.727436 -3.853899 0 0 0
15 15 -1.515225 1.841305 -4.197815 0 0 0
16 16 -0.913401 0.311373 -4.363368 0 0 0
17 17 -2.137399 0.457513 -4.785519 0 0 0
18 18 2.400785 1.385281 -4.121998 0 0 0
19 19 1.481738 1.057253 -4.172346 0 0 0
20 20 3.434939 1.512626 -3.940868 0 0 0
21 21 -2.025954 4.954554 -4.789744 0 0 0
22 22 -2.133440 3.015444 -4.054166 0 0 0
23 23 1.978977 3.003853 -2.777985 0 0 0
24 24 3.134020 4.729734 -2.551019 0 0 0
25 25 3.690824 3.188806 -4.646023 0 0 0
26 26 -2.758614 -3.876064 0.000000 0 0 0
27 27 -4.115695 -4.913236 -1.750304 0 0 0
28 28 -0.098709 -3.013087 -2.133000 0 0 0
29 29 -2.137645 -3.131577 -1.695071 0 0 0
30 30 -0.920519 -3.086296 -0.618131 0 0 0
31 31 -1.860511 -4.769650 -1.922466 0 0 0
32 32 1.301353 -3.745463 -0.311801 0 0 0
33 33 1.117723 -3.317726 -2.404013 0 0 0
34 34 2.583285 -3.557985 -1.113097 0 0 0
35 35 3.536248 -3.055540 -1.722468 0 0 0
36 36 4.680293 -3.175002 -1.479913 0 0 0
37 37 3.152954 -4.168179 -1.956538 0 0 0
38 38 -2.526629 -1.254169 -0.052838 0 0 0
39 39 -4.013962 -0.182421 -1.275252 0 0 0
40 40 -4.090948 -2.461430 -0.379420 0 0 0
41 41 -4.946253 -1.607396 -0.962524 0 0 0
42 42 -3.015728 -1.777871 -1.072381 0 0 0
43 43 -0.758614 -1.876064 0.000000 0 0 0
44 44 1.344343 -0.316475 -0.226973 0 0 0
45 45 1.683941 -0.386484 -2.404281 0 0 0
46 46 0.178739 -0.799645 -0.028625 0 0 0
47 47 2.420457 -0.318839 -0.962136 0 0 0
48 48 1.332564 -1.498271 -0.899030 0 0 0
49 49 1.241386 -1.876064 0.000000 0 0 0
50 50 2.673460 -1.347301 -1.086600 0 0 0
51 51 -3.342584 2.063652 -1.337064 0 0 0
52 52 -2.518579 2.098491 -0.641158 0 0 0
53 53 -4.603427 1.201251 -0.304467 0 0 0
54 54 -4.758614 0.123936 0.000000 0 0 0
55 55 -3.467651 0.485254 -1.856465 0 0 0
56 56 -2.758614 0.123936 0.000000 0 0 0
57 57 -0.758614 2.123936 0.000000 0 0 0
58 58 -0.676068 2.042235 -1.436598 0 0 0
59 59 -0.758614 0.123936 0.000000 0 0 0
60 60 -0.084586 1.057301 -1.036831 0 0 0
61 61 0.740686 1.815216 -1.271798 0 0 0
62 62 0.548761 2.428754 -2.171843 0 0 0
63 63 3.339095 1.914974 -0.238861 0 0 0
64 64 3.321769 1.932827 -2.284758 0 0 0
65 65 3.383771 2.325405 -1.239681 0 0 0
66 66 3.383728 0.692946 -0.990399 0 0 0
67 67 -3.604162 3.864897 -0.836324 0 0 0
68 68 -4.086955 3.361345 -2.383478 0 0 0
69 69 -0.946068 4.819216 -1.778049 0 0 0
70 70 -0.896137 4.926718 -0.685404 0 0 0
71 71 -2.062856 3.138166 -0.160524 0 0 0
72 72 1.275556 4.258634 -0.269128 0 0 0
73 73 0.525540 4.233180 -2.172154 0 0 0
74 74 3.440042 4.777423 -1.415839 0 0 0
75 75 4.994538 4.440753 -2.185641 0 0 0
76 76 -2.592139 -4.323927 2.006195 0 0 0
77 77 -2.010445 -2.856976 1.040790 0 0 0
78 78 -0.450118 -4.043948 1.248046 0 0 0
79 79 0.718794 -2.837505 0.260514 0 0 0
80 80 4.681099 -3.424557 2.141057 0 0 0
81 81 3.761073 -2.571214 0.685530 0 0 0
82 82 4.251607 -4.018816 0.684164 0 0 0
83 83 -4.103486 -1.861715 1.405378 0 0 0
84 84 -0.670812 -0.901300 1.996149 0 0 0
85 85 0.150324 -0.205790 1.057766 0 0 0
86 86 1.875845 -0.485357 1.543274 0 0 0
87 87 3.831824 -0.961838 0.106983 0 0 0
88 88 -4.033388 0.804778 2.437248 0 0 0
89 89 -0.835257 2.418931 1.876390 0 0 0
90 90 -2.344461 2.477273 2.365310 0 0 0
91 91 -2.430682 1.187605 2.308418 0 0 0
92 92 1.108218 1.312956 1.869372 0 0 0
93 93 0.582639 1.780384 1.193855 0 0 0
94 94 0.408620 1.863369 2.425991 0 0 0
95 95 2.515625 1.947725 1.348140 0 0 0
96 96 3.940455 0.352891 2.217973 0 0 0
97 97 4.619142 1.202497 1.632987 0 0 0
98 98 -2.992122 3.911235 1.661971 0 0 0
99 99 2.462959 4.835320 1.371697 0 0 0
100 100 4.839637 4.621344 0.450396 0 0 0
101 101 -4.469450 -2.537086 3.657336 0 0 0
102 102 -3.954311 -4.464625 4.271235 0 0 0
103 103 -0.491318 -4.341125 3.821948 0 0 0
104 104 0.680422 -2.913601 3.546976 0 0 0
105 105 3.634809 -4.448539 4.699471 0 0 0
106 106 -3.392324 -0.277545 3.373733 0 0 0
107 107 -3.316126 -1.981555 3.988323 0 0 0
108 108 -0.252902 -0.404813 2.740654 0 0 0
109 109 -1.593155 -0.805607 2.688909 0 0 0
110 110 -0.807458 -1.810100 3.959545 0 0 0
111 111 0.784680 -1.084804 3.799150 0 0 0
112 112 1.270724 -0.343997 2.685726 0 0 0
113 113 0.926080 -2.037056 3.680687 0 0 0
114 114 -3.244586 2.027963 3.078905 0 0 0
115 115 -4.191058 0.342032 4.238083 0 0 0
116 116 -0.847163 1.087428 2.813110 0 0 0
117 117 0.591148 2.097177 4.747008 0 0 0
118 118 4.104003 1.661846 3.706290 0 0 0
119 119 2.859548 1.094517 4.317224 0 0 0
120 120 2.818523 0.742424 3.279832 0 0 0
121 121 -4.213269 3.751689 4.991987 0 0 0
122 122 -3.211656 3.239849 3.003878 0 0 0
123 123 -4.419721 3.251460 3.720376 0 0 0
124 124 -0.575581 3.992022 3.405349 0 0 0
125 125 1.077012 2.984935 4.017017 0 0 0
ITEM: TIMESTEP 
5
ITEM: NUMBER OF ATOMS
125
ITEM: BOX BOUNDS
-5.000000 5.000000
-5.000000 5.000000
-5.000000 5.000000
ITEM: ATOMS id type x y z ix iy iz
1 1 -4.938033 -2.535712 -4.913636 0 0 0
2 2 -0.126524 -3.485634 -4.894614 0 0 0
3 3 -1.986909 -3.122669 -2.808156 0 0 0
4 4 1.908504 -3.025280 -4.422018 0 0 0
5 5 0.641521 -4.960701 -4.874129 0 0 0
6 6 4.011694 -4.463964 -4.243258 0 0 0
7 7 -4.478371 -1.515154 -4.152014 0 0 0
8 8 -0.751171 -0.503735 -3.226480 0 0 0
9 9 2.117029 -2.166770 -3.946231 0 0 0
10 10 1.546294 -0.277491 -4.880615 0 0 0
11 11 0.577705 -0.454638 -4.854252 0 0 0
12 12 4.356687 -0.271989 -2.525447 0 0 0
13 13 -2.750262 0.471412 -3.057159 0 0 0
14 14 -3.661715 2.337030 -2.818118 0 0 0
15 15 -0.271322 2.384869 -4.477787 0 0 0
16 16 -1.216389 0.457513 -4.785519 0 0 0
17 17 2.402748 1.057253 -4.172346 0 0 0
18 18 0.007609 0.311373 -4.363368 0 0 0
19 19 4.672719 0.299716 -3.586174 0 0 0
20 20 3.257716 0.830289 -3.686116 0 0 0
21 21 -1.469278 3.367761 -4.841311 0 0 0
22 22 -1.104944 4.954554 -4.789744 0 0 0
23 23 1.558112 3.021541 -4.287568 0 0 0
24 24 4.214671 3.297864 -4.980600 0 0 0
25 25 3.950004 4.662406 -3.671861 0 0 0
26 26 -3.194685 -4.913236 -1.750304 0 0 0
27 27 -4.138209 -4.046722 -1.999646 0 0 0
28 28 -4.512479 -3.194772 -1.257162 0 0 0
29 29 -1.216635 -3.131577 -1.695071 0 0 0
30 30 -0.818321 -4.520972 -1.459780 0 0 0
31 31 -1.837603 -3.876064 0.000000 0 0 0
32 32 2.038733 -3.317726 -2.404013 0 0 0
33 33 2.474794 -3.713518 -1.011313 0 0 0
34 34 0.822301 -3.013087 -2.133000 0 0 0
35 35 0.257224 -3.416742 -1.178037 0 0 0
36 36 3.504296 -3.557985 -1.113097 0 0 0
37 37 4.073965 -4.168179 -1.956538 0 0 0
38 38 -3.092951 -0.182421 -1.275252 0 0 0
39 39 -4.025242 -1.607396 -0.962524 0 0 0
40 40 -3.169938 -2.461430 -0.379420 0 0 0
41 41 -0.281639 -1.723274 -0.206980 0 0 0
42 42 -1.834918 -1.381312 -1.526379 0 0 0
43 43 -1.648362 -1.766829 -0.125551 0 0 0
44 44 1.099749 -0.799645 -0.028625 0 0 0
45 45 2.162396 -1.876064 0.000000 0 0 0
46 46 2.265354 -0.316475 -0.226973 0 0 0
47 47 1.915331 -1.110320 -1.235523 0 0 0
48 48 3.828494 -0.981199 -0.402086 0 0 0
49 49 3.341467 -0.318839 -0.962136 0 0 0
50 50 2.604951 -0.386484 -2.404281 0 0 0
51 51 -3.459906 1.166983 -2.344819 0 0 0
52 52 -3.565275 1.513330 -0.177487 0 0 0
53 53 -3.433625 1.753500 -1.188813 0 0 0
54 54 -3.837603 0.123936 0.000000 0 0 0
55 55 -1.921491 0.651835 -0.584391 0 0 0
56 56 -1.597569 2.098491 -0.641158 0 0 0
57 57 1.469772 2.428754 -2.171843 0 0 0
58 58 1.588127 1.664357 -1.054577 0 0 0
59 59 0.296367 0.508240 -1.993374 0 0 0
60 60 0.836424 1.057301 -1.036831 0 0 0
61 61 0.446062 0.349819 -0.171085 0 0 0
62 62 0.162397 2.123936 0.000000 0 0 0
63 63 4.710466 1.075308 -2.048333 0 0 0
64 64 4.304739 0.692946 -0.990399 0 0 0
65 65 3.798350 1.690163 -0.297142 0 0 0
66 66 4.614766 1.752980 -1.310982 0 0 0
67 67 -2.795162 3.635870 -0.901870 0 0 0
68 68 -3.165945 3.361345 -2.383478 0 0 0
69 69 -4.538229 3.940658 -2.382104 0 0 0
70 70 -0.025057 4.819216 -1.778049 0 0 0
71 71 -1.208537 3.791326 -1.083306 0 0 0
72 72 1.055768 3.604287 -0.228404 0 0 0
73 73 0.194379 4.615897 -0.658357 0 0 0
74 74 4.969816 4.951869 -0.877395 0 0 0
75 75 2.598268 3.350002 -0.213826 0 0 0
76 76 -2.553741 -4.828215 2.049395 0 0 0
77 77 -4.153326 -4.329947 1.531104 0 0 0
78 78 -4.397891 -3.424557 2.141057 0 0 0
79 79 -1.544863 -2.602665 1.362683 0 0 0
80 80 1.662571 -3.617721 0.349017 0 0 0
81 81 0.523818 -3.994961 0.485026 0 0 0
82 82 4.682084 -2.571214 0.685530 0 0 0
83 83 -3.592547 -1.345071 0.202268 0 0 0
84 84 1.071334 -0.205790 1.057766 0 0 0
85 85 0.917304 -1.446074 0.804759 0 0 0
86 86 4.463475 -1.275337 0.508605 0 0 0
87 87 2.923620 -0.751171 0.836758 0 0 0
88 88 -3.112378 0.804778 2.437248 0 0 0
89 89 -4.877213 1.116701 0.947626 0 0 0