ITEM: TIMESTEP 
0
ITEM: NUMBER OF ATOMS
15
ITEM: BOX BOUNDS
-5.000000 5.000000
-5.000000 5.000000
-5.000000 5.000000
ITEM: ATOMS id type x y z ix iy iz
1 1 3.333333 3.333333 3.333333 0 0 0
2 2 0.000000 3.333333 3.333333 0 0 0
3 3 -3.333333 3.333333 3.333333 0 0 0
4 4 3.333333 0.000000 3.333333 0 0 0
5 5 0.000000 0.000000 3.333333 0 0 0
6 6 -3.333333 0.000000 3.333333 0 0 0
7 7 3.333333 -3.333333 3.333333 0 0 0
8 8 0.000000 -3.333333 3.333333 0 0 0
9 9 -3.333333 -3.333333 3.333333 0 0 0
10 10 3.333333 3.333333 0.000000 0 0 0
11 11 0.000000 3.333333 0.000000 0 0 0
12 12 -3.333333 3.333333 0.000000 0 0 0
13 13 3.333333 0.000000 0.000000 0 0 0
14 14 0.000000 0.000000 0.000000 0 0 0
15 15 -3.333333 0.000000 0.000000 0 0 0
ITEM: TIMESTEP 
1
ITEM: NUMBER OF ATOMS
15
ITEM: BOX BOUNDS
-5.000000 5.000000
-5.000000 5.000000
-5.000000 5.000000
ITEM: ATOMS id type x y z ix iy iz
1 1 -3.333333 0.000000 0.945227 0 0 0
2 2 -0.341152 -0.312779 0.888849 0 0 0
3 3 3.333333 0.000000 0.945227 0 0 0
4 4 -2.980657 3.457894 0.583579 0 0 0
5 5 -0.070132 3.757639 0.906378 0 0 0
6 6 3.135885 3.919560 0.884414 0 0 0
7 7 -3.855888 -3.352618 4.273189 0 0 0
8 8 -0.000215 -3.308440 4.025203 0 0 0
9 9 3.481764 -3.115151 3.851424 0 0 0
10 10 -3.414566 -0.031769 3.814414 0 0 0
11 11 0.000000 0.000000 3.778560 0 0 0
12 12 3.231910 -0.176506 3.626020 0 0 0
13 13 -4.554879 3.009314 4.531079 0 0 0
14 14 -0.111419 3.509602 4.058295 0 0 0
15 15 2.771285 3.475745 3.732849 0 0 0
ITEM: TIMESTEP 
2
ITEM: NUMBER OF ATOMS
15
ITEM: BOX BOUNDS
-5.000000 5.000000
-5.000000 5.000000
-5.000000 5.000000
ITEM: ATOMS id type x y z ix iy iz
1 1 -3.679120 -0.115080 1.385664 0 0 0
2 2 -0.662945 -0.085967 0.790902 0 0 0
3 3 2.636456 -0.407897 0.267974 0 0 0
4 4 -4.101460 4.102695 0.100969 0 0 0
5 5 -0.080825 3.630538 1.230404 0 0 0
6 6 3.306866 3.892385 0.917199 0 0 0
7 7 -4.300692 -2.839408 4.292492 0 0 0
8 8 -0.390719 -3.724063 3.891790 0 0 0
9 9 2.866418 -3.169471 2.931033 0 0 0
10 10 -2.712909 -0.696822 3.999449 0 0 0
11 11 -0.073083 -0.047089 3.554312 0 0 0
12 12 2.939971 -1.005129 2.620186 0 0 0
13 13 -4.880827 3.203150 4.375276 0 0 0
14 14 -1.253124 2.684519 3.494244 0 0 0
15 15 2.684597 3.543683 3.348950 0 0 0
ITEM: TIMESTEP 
3
ITEM: NUMBER OF ATOMS
15
ITEM: BOX BOUNDS
-5.000000 5.000000
-5.000000 5.000000
-5.000000 5.000000
ITEM: ATOMS id type x y z ix iy iz
1 1 -4.690936 -4.192092 0.036919 0 0 0
2 2 4.394319 -4.193283 0.655440 0 0 0
3 3 -2.540344 0.788434 1.232308 0 0 0
4 4 -0.568322 0.713826 0.696195 0 0 0
5 5 3.082893 0.720473 0.372834 0 0 0
6 6 -0.552750 3.365988 0.614636 0 0 0
7 7 -4.774079 -2.595287 4.219629 0 0 0
8 8 -0.023008 -3.502729 4.023894 0 0 0
9 9 2.801948 -3.126169 2.610719 0 0 0
10 10 -3.388096 -0.881172 3.493347 0 0 0
11 11 3.953926 -0.637039 2.839184 0 0 0
12 12 -0.043585 0.874993 3.627773 0 0 0
13 13 -4.453095 3.529168 4.704246 0 0 0
14 14 -0.973105 3.172968 3.083841 0 0 0
15 15 2.674524 4.713857 3.153158 0 0 0
ITEM: TIMESTEP 
4
ITEM: NUMBER OF ATOMS
15
ITEM: BOX BOUNDS
-5.000000 5.000000
-5.000000 5.000000
-5.000000 5.000000
ITEM: ATOMS id type x y z ix iy iz
1 1 3.105671 -3.623741 1.559092 0 0 0
2 2 4.402855 -4.318741 0.061320 0 0 0
3 3 -3.392982 0.919746 0.885181 0 0 0
4 4 -0.670012 0.887644 1.233385 0 0 0
5 5 1.904219 0.696805 0.204152 0 0 0
6 6 -0.959026 3.352206 0.445049 0 0 0
7 7 -0.624585 -3.354697 4.329422 0 0 0
8 8 1.689911 -3.965954 3.155839 0 0 0
9 9 4.282348 -3.021456 4.466863 0 0 0
10 10 -4.431332 -1.600464 2.594621 0 0 0
11 11 3.291147 -0.881881 2.562151 0 0 0
12 12 -0.446224 1.107950 3.568070 0 0 0
13 13 -4.855281 4.324588 4.315572 0 0 0
14 14 -1.685850 3.246288 2.967257 0 0 0
15 15 2.759381 4.089006 3.443212 0 0 0
ITEM: TIMESTEP 
5
ITEM: NUMBER OF ATOMS
15
ITEM: BOX BOUNDS
-5.000000 5.000000
-5.000000 5.000000
-5.000000 5.000000
ITEM: ATOMS id type x y z ix iy iz
1 1 2.999881 -3.623596 1.370340 0 0 0
2 2 4.378778 -4.263926 0.061046 0 0 0
3 3 -3.173300 0.916758 0.865037 0 0 0
4 4 -0.945160 0.493320 1.819553 0 0 0
5 5 1.492359 0.577267 0.345846 0 0 0
6 6 -1.142121 3.125977 0.361067 0 0 0
7 7 -0.925710 -3.724059 4.196857 0 0 0
8 8 1.048463 -4.035707 3.251936 0 0 0
9 9 4.003800 -2.790500 4.794854 0 0 0
10 10 -4.547718 -1.923145 2.739875 0 0 0
11 11 3.210796 -0.820426 2.611087 0 0 0
12 12 -0.928777 0.893247 4.000813 0 0 0
13 13 -4.636045 3.052267 4.172207 0 0 0
14 14 -0.809593 2.888891 3.807043 0 0 0
15 15 2.821851 3.904983 3.066061 0 0 0
ITEM: TIMESTEP 
6
ITEM: NUMBER OF ATOMS
15
ITEM: BOX BOUNDS
-5.000000 5.000000
-5.000000 5.000000
-5.000000 5.000000
ITEM: ATOMS id type x y z ix iy iz
1 1 3.537028 -4.426413 0.020985 0 0 0
2 2 2.525828 -3.579848 1.676020 0 0 0
3 3 -3.419506 0.355952 0.889344 0 0 0
4 4 -0.655787 0.491441 2.078889 0 0 0
5 5 -0.669115 0.608032 0.229972 0 0 0
6 6 -2.487777 3.098441 0.484501 0 0 0
7 7 -1.110605 -3.519225 4.688044 0 0 0
8 8 1.310997 -4.636355 3.363991 0 0 0
9 9 3.328063 -2.866557 4.543417 0 0 0
10 10 -4.367231 -2.336299 2.630031 0 0 0
11 11 3.487900 -0.384321 2.689759 0 0 0
12 12 -1.118529 0.528186 3.783020 0 0 0
13 13 -4.729443 2.766614 4.468844 0 0 0
14 14 -1.065688 2.756141 4.514313 0 0 0
15 15 1.720916 3.984664 2.939994 0 0 0
ITEM: TIMESTEP 
7
ITEM: NUMBER OF ATOMS
15
ITEM: BOX BOUNDS
-5.000000 5.000000
-5.000000 5.000000
-5.000000 5.000000
ITEM: ATOMS id type x y z ix iy iz
1 1 1.174880 -3.213863 1.569201 0 0 0
2 2 2.764842 -4.682439 0.105939 0 0 0
3 3 -4.571937 0.250048 0.378023 0 0 0
4 4 -1.533144 1.321814 1.593504 0 0 0
5 5 -1.714434 0.667151 0.241011 0 0 0
6 6 -2.382313 2.998255 1.299186 0 0 0
7 7 -1.792809 -3.169285 4.970308 0 0 0
8 8 1.103084 -4.259274 3.724382 0 0 0
9 9 2.700313 -3.108794 4.671625 0 0 0
10 10 2.852247 -0.144166 3.091666 0 0 0
11 11 4.147746 -2.336299 2.630031 0 0 0
12 12 -1.292788 0.682496 4.385825 0 0 0
13 13 -3.022282 2.606601 4.237570 0 0 0
14 14 1.140579 4.084687 3.064768 0 0 0
15 15 3.778445 2.860040 4.786111 0 0 0
ITEM: TIMESTEP 
8
ITEM: NUMBER OF ATOMS
15
ITEM: BOX BOUNDS
-5.000000 5.000000
-5.000000 5.000000
-5.000000 5.000000
ITEM: ATOMS id type x y z ix iy iz
1 1 2.118798 -3.402627 1.692666 0 0 0
2 2 3.593777 -4.666123 0.309443 0 0 0
3 3 -3.148073 0.004023 0.425344 0 0 0
4 4 -1.328947 0.401380 0.285001 0 0 0
5 5 -0.557438 1.288054 1.467313 0 0 0
6 6 -1.284742 3.088553 1.135953 0 0 0
7 7 -0.331555 -2.503949 4.770871 0 0 0
8 8 2.234633 -4.484674 3.544789 0 0 0
9 9 3.606537 -3.081324 4.611368 0 0 0
10 10 4.982643 -2.462786 3.235150 0 0 0
11 11 4.399298 -0.227083 2.546153 0 0 0
12 12 -0.498341 1.095834 4.390869 0 0 0
13 13 -3.928352 2.739820 4.581915 0 0 0
14 14 -1.202713 3.070998 4.430729 0 0 0
15 15 2.286960 4.334827 3.523492 0 0 0
ITEM: TIMESTEP 
9
ITEM: NUMBER OF ATOMS
15
ITEM: BOX BOUNDS
-5.000000 5.000000
-5.000000 5.000000
-5.000000 5.000000
ITEM: ATOMS id type x y z ix iy iz
1 1 1.906778 -2.958904 2.228474 0 0 0
2 2 3.254365 -4.354873 1.047612 0 0 0
3 3 -2.907036 0.200244 0.406818 0 0 0
4 4 -0.884874 0.331616 0.440675 0 0 0
5 5 -0.246348 0.849813 1.927703 0 0 0
6 6 -1.841493 3.416561 0.611403 0 0 0
7 7 -0.048457 -3.050074 4.340630 0 0 0
8 8 1.586933 -4.164495 3.714562 0 0 0
9 9 3.928240 -3.268954 4.797818 0 0 0
10 10 3.854114 -0.071217 2.620852 0 0 0
11 11 4.982643 -2.380119 3.235150 0 0 0
12 12 -0.020769 1.005903 3.981205 0 0 0
13 13 -4.683182 2.731984 4.447129 0 0 0
14 14 -1.910189 2.886583 4.361520 0 0 0
15 15 2.121146 4.706239 2.971852 0 0 0
ITEM: TIMESTEP 
10
ITEM: NUMBER OF ATOMS
15
ITEM: BOX BOUNDS
-5.000000 5.000000
-5.000000 5.000000
-5.000000 5.000000
ITEM: ATOMS id type x y z ix iy iz
1 1 1.123938 -3.063604 2.486115 0 0 0
2 2 1.703197 -4.581547 2.156064 0 0 0
3 3 -3.470191 0.208089 0.045977 0 0 0
4 4 -0.442369 0.884940 1.943029 0 0 0
5 5 -1.578492 0.289176 0.076023 0 0 0
6 6 -2.305181 3.709437 0.957829 0 0 0
7 7 -0.620658 -2.776634 4.184405 0 0 0
8 8 0.249956 -4.155672 3.619433 0 0 0
9 9 2.799392 -2.506205 4.171104 0 0 0
10 10 3.448104 -0.071217 2.620852 0 0 0
11 11 4.576632 -2.380119 3.235150 0 0 0
12 12 -1.291386 0.987038 3.750646 0 0 0
13 13 -3.131286 2.997234 4.869627 0 0 0
14 14 1.221555 4.671373 3.397151 0 0 0
15 15 4.151702 2.769805 4.912869 0 0 0
ITEM: TIMESTEP 
11
ITEM: NUMBER OF ATOMS
15
ITEM: BOX BOUNDS
-5.000000 5.000000
-5.000000 5.000000
-5.000000 5.000000
ITEM: ATOMS id type x y z ix iy iz
1 1 0.143989 -3.460700 2.105617 0 0 0
2 2 0.646849 -4.322753 2.481594 0 0 0
3 3 -3.384850 0.317727 0.092592 0 0 0
4 4 -1.098682 0.306351 1.519898 0 0 0
5 5 4.211965 0.523539 0.710124 0 0 0
6 6 -3.836458 3.207370 0.769909 0 0 0
7 7 -1.296598 -2.831046 4.304328 0 0 0
8 8 -1.152411 -3.500850 3.794545 0 0 0
9 9 1.328615 -2.837172 4.256943 0 0 0
10 10 1.712950 -0.178890 3.000710 0 0 0
11 11 3.612627 -2.280961 3.227665 0 0 0
12 12 -2.214855 1.391668 3.525976 0 0 0
13 13 -4.665224 2.940228 3.658862 0 0 0
14 14 -0.754764 4.702125 2.960884 0 0 0
15 15 3.556711 2.947457 4.578648 0 0 0
ITEM: TIMESTEP 
12
ITEM: NUMBER OF ATOMS
15
ITEM: BOX BOUNDS
-5.000000 5.000000
-5.000000 5.000000
-5.000000 5.000000
ITEM: ATOMS id type x y z ix iy iz
1 1 1.242950 -4.634425 2.089455 0 0 0
2 2 0.282713 -3.452140 1.791386 0 0 0
3 3 -3.119599 0.138231 0.182019 0 0 0
4 4 -0.601407 0.468605 0.814380 0 0 0
5 5 3.605282 0.760558 1.044453 0 0 0
6 6 -3.661793 3.765885 0.399184 0 0 0
7 7 -0.469378 -4.053631 3.630500 0 0 0
8 8 -1.100274 -2.710610 4.680829 0 0 0
9 9 1.410128 -3.088658 4.634161 0 0 0
10 10 3.815664 -2.465264 3.410505 0 0 0
11 11 3.199751 -0.045916 3.671925 0 0 0
12 12 -1.725681 1.008957 3.702253 0 0 0
13 13 -4.394603 3.001169 3.477985 0 0 0
14 14 -0.278217 4.732934 3.374877 0 0 0
15 15 3.902268 2.532499 4.615964 0 0 0
ITEM: TIMESTEP 
13
ITEM: NUMBER OF ATOMS
15
ITEM: BOX BOUNDS
-5.000000 5.000000
-5.000000 5.000000
-5.000000 5.000000
ITEM: ATOMS id type x y z ix iy iz
1 1 1.611262 -3.643633 0.895271 0 0 0
2 2 2.377877 -4.797857 2.331130 0 0 0
3 3 -1.825842 0.966124 0.786905 0 0 0
4 4 0.728755 0.136515 0.143734 0 0 0
5 5 4.585042 0.526501 0.921499 0 0 0
6 6 -1.965101 4.300331 0.488435 0 0 0
7 7 2.477102 -2.643592 4.696359 0 0 0
8 8 0.852784 -2.592592 4.637806 0 0 0
9 9 0.683398 -4.334660 4.047019 0 0 0
10 10 -4.015739 -2.283974 3.422633 0 0 0
11 11 4.186627 -0.428224 3.638442 0 0 0
12 12 -0.264170 1.377601 4.227796 0 0 0
13 13 -3.657563 2.767669 3.547640 0 0 0
14 14 -3.749724 3.350352 4.177721 0 0 0
15 15 1.151658 4.069799 3.465094 0 0 0
ITEM: TIMESTEP 
14
ITEM: NUMBER OF ATOMS
15
ITEM: BOX BOUNDS
-5.000000 5.000000
-5.000000 5.000000
-5.000000 5.000000
ITEM: ATOMS id type x y z ix iy iz
1 1 0.645527 -3.695678 0.672698 0 0 0
2 2 1.995060 -4.797857 2.331130 0 0 0
3 3 -3.263838 1.441124 0.873606 0 0 0
4 4 1.175744 0.203150 0.672656 0 0 0
5 5 2.851840 0.436127 1.325801 0 0 0
6 6 -2.053771 4.282912 0.119457 0 0 0
7 7 1.902813 -2.829990 4.348314 0 0 0
8 8 0.398780 -4.022621 3.381009 0 0 0
9 9 0.362817 -2.953123 4.329095 0 0 0
10 10 -4.490726 -2.474750 3.960000 0 0 0
11 11 3.747633 -0.131943 3.223767 0 0 0
12 12 -0.418410 0.467208 3.438134 0 0 0
13 13 -3.880870 2.506602 2.971835 0 0 0
14 14 -4.447716 3.347749 4.456520 0 0 0
15 15 1.707076 4.519300 3.029943 0 0 0
ITEM: TIMESTEP 
15
ITEM: NUMBER OF ATOMS
15
ITEM: BOX BOUNDS
-5.000000 5.000000
-5.000000 5.000000
-5.000000 5.000000
ITEM: ATOMS id type x y z ix iy iz
1 1 1.234295 -3.899688 1.085690 0 0 0
2 2 2.001945 -4.851947 2.237889 0 0 0
3 3 -3.417310 1.167225 0.958040 0 0 0
4 4 2.101267 0.451960 0.346182 0 0 0
5 5 3.124561 1.025064 1.297297 0 0 0
6 6 -1.617010 4.479524 0.277019 0 0 0
7 7 2.148292 -2.617532 3.966095 0 0 0
8 8 0.200140 -3.588622 3.374984 0 0 0
9 9 0.362817 -2.953123 4.210646 0 0 0
10 10 -4.834518 -2.039780 3.860240 0 0 0
11 11 2.896005 -0.371000 2.945213 0 0 0
12 12 -1.218383 0.303560 3.882329 0 0 0
13 13 -3.483961 3.002465 2.644422 0 0 0
14 14 -4.740728 4.036164 3.933851 0 0 0
15 15 1.456974 3.656612 2.980357 0 0 0
ITEM: TIMESTEP 
16
ITEM: NUMBER OF ATOMS
15
ITEM: BOX BOUNDS
-5.000000 5.000000
-5.000000 5.000000
-5.000000 5.000000
ITEM: ATOMS id type x y z ix iy iz
1 1 0.791356 -2.638243 -4.436796 0 0 0
2 2 1.248703 -4.596442 2.141159 0 0 0
3 3 2.212133 -3.764248 2.452760 0 0 0
4 4 -3.085136 1.924216 0.968317 0 0 0
5 5 1.845214 0.473510 0.583396 0 0 0
6 6 2.730686 0.937484 1.491803 0 0 0
7 7 -1.451586 4.456975 0.780424 0 0 0
8 8 0.060414 -3.804615 3.285310 0 0 0
9 9 2.148292 -2.617532 4.366307 0 0 0
10 10 -3.561658 -2.118723 3.978435 0 0 0
11 11 3.634905 -0.332659 3.647212 0 0 0
12 12 -1.419929 0.525162 4.957123 0 0 0
13 13 -4.409914 3.687968 3.838176 0 0 0
14 14 -3.719736 2.952348 3.104343 0 0 0
15 15 1.258007 3.692636 4.379458 0 0 0
ITEM: TIMESTEP 
17
ITEM: NUMBER OF ATOMS
15
ITEM: BOX BOUNDS
-5.000000 5.000000
-5.000000 5.000000
-5.000000 5.000000
ITEM: ATOMS id type x y z ix iy iz
1 1 0.927885 -2.602566 -4.245941 0 0 0
2 2 -1.217455 -4.431180 0.620674 0 0 0
3 3 2.448237 -3.173070 2.471977 0 0 0
4 4 0.935912 -4.088055 1.819263 0 0 0
5 5 -2.537101 2.418502 0.388112 0 0 0
6 6 2.473596 1.386800 0.289931 0 0 0
7 7 3.155884 3.049717 2.319961 0 0 0
8 8 2.356307 -2.802487 4.384836 0 0 0
9 9 0.115218 -3.332399 3.190588 0 0 0
10 10 1.743514 -4.343441 4.511573 0 0 0
11 11 -3.375201 -1.302704 3.942034 0 0 0
12 12 -1.317513 1.488115 4.297119 0 0 0
13 13 4.325730 0.889148 2.620340 0 0 0
14 14 -4.032352 4.026742 3.955658 0 0 0
15 15 -3.237990 3.211671 3.562398 0 0 0
ITEM: TIMESTEP 
18
ITEM: NUMBER OF ATOMS
15
ITEM: BOX BOUNDS
-5.000000 5.000000
-5.000000 5.000000
-5.000000 5.000000
ITEM: ATOMS id type x y z ix iy iz
1 1 0.573668 -2.522514 -4.768980 0 0 0
2 2 -0.312088 -4.145680 0.980111 0 0 0
3 3 1.301038 -4.413869 2.452356 0 0 0
4 4 3.196314 -3.173070 2.471977 0 0 0
5 5 -2.519746 2.498999 0.456688 0 0 0
6 6 2.137684 1.304245 0.274756 0 0 0
7 7 3.680062 3.593445 1.967013 0 0 0
8 8 2.099783 -4.677183 4.359101 0 0 0
9 9 0.804025 -3.460406 3.431401 0 0 0
10 10 3.104384 -2.802487 4.384836 0 0 0
11 11 -3.218494 -0.926008 3.682466 0 0 0
12 12 0.620937 1.416243 4.298774 0 0 0
13 13 4.138567 0.930232 2.975925 0 0 0
14 14 -2.992910 3.442496 3.298359 0 0 0
15 15 -3.785960 3.913868 4.047907 0 0 0
ITEM: TIMESTEP 
19
ITEM: NUMBER OF ATOMS
15
ITEM: BOX BOUNDS
-5.000000 5.000000
-5.000000 5.000000
-5.000000 5.000000
ITEM: ATOMS id type x y z ix iy iz
1 1 1.012460 -1.470138 -4.309760 0 0 0
2 2 -0.607386 -3.658141 2.313856 0 0 0
3 3 1.703460 -3.572974 2.340039 0 0 0
4 4 3.854638 -2.599430 2.103816 0 0 0
5 5 -2.842100 2.297984 1.323402 0 0 0
6 6 2.025932 2.299612 0.147261 0 0 0
7 7 3.417046 4.157321 1.466833 0 0 0
8 8 2.235249 -3.964184 4.452401 0 0 0
9 9 0.744390 -2.764349 2.954913 0 0 0
10 10 3.729483 -2.706080 4.528354 0 0 0
11 11 -2.898063 -0.618571 3.514631 0 0 0
12 12 0.262079 2.466448 3.537521 0 0 0
13 13 3.486139 1.970114 2.764863 0 0 0
14 14 -3.548584 4.144028 2.535907 0 0 0
15 15 -3.785960 4.690221 4.047907 0 0 0
ITEM: TIMESTEP 
20
ITEM: NUMBER OF ATOMS
15
ITEM: BOX BOUNDS
-5.000000 5.000000
-5.000000 5.000000
-5.000000 5.000000
ITEM: ATOMS id type x y z ix iy iz
1 1 -4.071820 1.776575 -1.063581 0 0 0
2 2 2.281914 2.354049 -1.365088 0 0 0
3 3 -0.992093 -3.977081 1.353814 0 0 0
4 4 2.239663 -3.776139 0.714549 0 0 0
5 5 0.198605 -3.191510 1.684528 0 0 0
6 6 2.593341 -2.709951 1.107666 0 0 0
7 7 -3.438562 -0.603831 1.835828 0 0 0
8 8 3.665506 1.782680 1.431127 0 0 0
9 9 -3.428694 3.992170 1.103698 0 0 0
10 10 4.353660 4.709197 0.831638 0 0 0
11 11 1.951925 -4.163549 3.447336 0 0 0
12 12 4.363059 -2.850037 2.730545 0 0 0
13 13 0.722583 -2.057279 4.301433 0 0 0
14 14 0.127199 2.449715 3.079388 0 0 0
15 15 -4.328203 4.257303 3.058435 0 0 0
ITEM: TIMESTEP 
21
ITEM: NUMBER OF ATOMS
15
ITEM: BOX BOUNDS
-5.000000 5.000000
-5.000000 5.000000
-5.000000 5.000000
ITEM: ATOMS id type x y z ix iy iz
1 1 2.108445 2.135787 -0.510953 0 0 0
2 2 -1.073840 -3.982074 1.810117 0 0 0
3 3 0.308363 -3.216716 2.487280 0 0 0
4 4 1.774118 -4.195438 1.123100 0 0 0
5 5 2.684436 -2.728690 1.006045 0 0 0
6 6 -3.568376 -0.393865 1.854422 0 0 0
7 7 -3.880263 1.703122 0.500279 0 0 0
8 8 4.193157 2.225609 1.122561 0 0 0
9 9 -3.264640 3.209989 2.071226 0 0 0
10 10 3.726163 4.249749 1.058496 0 0 0
11 11 1.720017 -4.262282 3.757518 0 0 0
12 12 4.467613 -2.514093 3.073412 0 0 0
13 13 0.097194 -1.727603 4.780338 0 0 0
14 14 0.391990 2.460196 3.845003 0 0 0
15 15 -4.778071 4.667549 3.094273 0 0 0
ITEM: TIMESTEP 
22
ITEM: NUMBER OF ATOMS
15
ITEM: BOX BOUNDS
-5.000000 5.000000
-5.000000 5.000000
-5.000000 5.000000
ITEM: ATOMS id type x y z ix iy iz
1 1 2.430894 2.046662 -0.909724 0 0 0
2 2 -1.064354 -4.194887 1.072775 0 0 0
3 3 0.322424 -3.405019 2.138163 0 0 0
4 4 2.035625 -4.156162 0.688683 0 0 0
5 5 3.038038 -3.303692 0.333018 0 0 0
6 6 -3.193657 -0.520830 1.206079 0 0 0
7 7 -4.019839 1.285915 0.015439 0 0 0
8 8 4.684767 1.517686 0.357849 0 0 0
9 9 -3.345523 3.618127 2.089710 0 0 0
10 10 -4.598890 4.028462 1.894294 0 0 0
11 11 4.313959 4.807777 0.197924 0 0 0
12 12 1.572106 -3.974241 2.873236 0 0 0
13 13 4.051651 -2.941481 3.345935 0 0 0
14 14 0.686253 -0.281348 4.157519 0 0 0
15 15 0.374679 1.353202 4.115252 0 0 0
ITEM: TIMESTEP 
23
ITEM: NUMBER OF ATOMS
15
ITEM: BOX BOUNDS
-5.000000 5.000000
-5.000000 5.000000
-5.000000 5.000000
ITEM: ATOMS id type x y z ix iy iz
1 1 2.086741 1.390396 -0.749970 0 0 0
2 2 0.134435 -3.600665 1.787746 0 0 0
3 3 1.621689 -4.589277 0.018154 0 0 0
4 4 3.227155 -3.844792 0.623730 0 0 0
5 5 -4.355931 -0.813354 2.190150 0 0 0
6 6 -4.019356 -0.922772 0.913950 0 0 0
7 7 4.404058 1.645578 0.548817 0 0 0
8 8 -4.940070 3.608931 1.971535 0 0 0
9 9 -3.109176 2.826224 2.494786 0 0 0
10 10 -1.532315 4.366786 0.467009 0 0 0
11 11 3.911621 4.042344 0.726199 0 0 0
12 12 2.312917 -4.668805 2.877105 0 0 0
13 13 4.887031 -3.698661 3.863446 0 0 0
14 14 0.620477 -2.475461 2.974696 0 0 0
15 15 0.269424 1.058852 3.096514 0 0 0
ITEM: TIMESTEP 
24
ITEM: NUMBER OF ATOMS
15
ITEM: BOX BOUNDS
-5.000000 5.000000
-5.000000 5.000000
-5.000000 5.000000
ITEM: ATOMS id type x y z ix iy iz
1 1 1.796003 -4.948784 -1.068740 0 0 0
2 2 3.863514 -3.947166 -0.671282 0 0 0
3 3 1.958797 1.154418 -2.275217 0 0 0
4 4 -1.514076 3.198496 -0.937093 0 0 0
5 5 3.777884 4.417746 -0.694808 0 0 0
6 6 0.206955 -3.308541 1.387274 0 0 0
7 7 2.420955 -3.769483 1.612381 0 0 0
8 8 -4.943952 -1.038666 1.325308 0 0 0
9 9 -3.852859 -0.744445 0.084144 0 0 0
10 10 0.952251 -2.109546 1.951520 0 0 0
11 11 0.422238 0.935968 1.331826 0 0 0
12 12 3.801578 1.053562 0.055285 0 0 0
13 13 -2.945535 3.227564 1.531378 0 0 0
14 14 -4.722411 3.724703 1.383520 0 0 0
15 15 4.149703 -4.200325 2.896108 0 0 0
ITEM: TIMESTEP 
25
ITEM: NUMBER OF ATOMS
15
ITEM: BOX BOUNDS
-5.000000 5.000000
-5.000000 5.000000
-5.000000 5.000000
ITEM: ATOMS id type x y z ix iy iz
1 1 4.109766 -4.697189 -0.985052 0 0 0
2 2 1.649511 0.496871 -2.427117 0 0 0
3 3 -1.463382 2.988515 -0.525036 0 0 0
4 4 2.096332 3.898366 -0.235373 0 0 0
5 5 3.925497 3.968515 -1.018289 0 0 0
6 6 1.772628 -4.650807 1.381101 0 0 0
7 7 0.280203 -3.923016 1.549055 0 0 0
8 8 -4.849151 -1.928856 0.896167 0 0 0
9 9 -3.559937 -0.867154 0.341595 0 0 0
10 10 0.651358 -2.280602 2.031318 0 0 0
11 11 -2.964900 1.550754 1.865049 0 0 0
12 12 0.971626 0.326378 0.778174 0 0 0
13 13 3.725187 0.402627 0.607967 0 0 0
14 14 -4.707304 3.075010 1.283185 0 0 0
15 15 3.892661 -4.734784 3.309988 0 0 0
ITEM: TIMESTEP 
26
ITEM: NUMBER OF ATOMS
15
ITEM: BOX BOUNDS
-5.000000 5.000000
-5.000000 5.000000
-5.000000 5.000000
ITEM: ATOMS id type x y z ix iy iz
1 1 1.521679 -4.313757 -0.377796 0 0 0
2 2 3.628724 -4.484481 -1.318953 0 0 0
3 3 1.456498 0.670732 -1.853812 0 0 0
4 4 -1.557783 3.060863 -0.318815 0 0 0
5 5 3.807925 4.208296 -1.609054 0 0 0
6 6 0.251099 -3.206416 1.267542 0 0 0
7 7 1.651979 -4.578107 1.460043 0 0 0
8 8 -3.794649 -0.661029 0.360116 0 0 0
9 9 -4.871210 -1.505369 1.229548 0 0 0
10 10 0.504849 -1.920999 2.033046 0 0 0
11 11 -3.133792 1.317199 1.635085 0 0 0
12 12 0.388286 0.354254 1.332571 0 0 0
13 13 3.342190 0.652321 0.147616 0 0 0
14 14 -4.981980 3.922993 1.133206 0 0 0
15 15 4.033318 -4.656238 3.205150 0 0 0
ITEM: TIMESTEP 
27
ITEM: NUMBER OF ATOMS
15
ITEM: BOX BOUNDS
-5.000000 5.000000
-5.000000 5.000000
-5.000000 5.000000
ITEM: ATOMS id type x y z ix iy iz
1 1 0.359403 -4.447723 -0.561394 0 0 0
2 2 3.194294 -4.012384 -0.751037 0 0 0
3 3 0.699780 1.607389 -1.280784 0 0 0
4 4 -1.550285 3.334275 -1.778569 0 0 0
5 5 4.051989 4.179430 -1.195768 0 0 0
6 6 -0.524073 -2.839540 1.485857 0 0 0
7 7 1.185139 -4.646360 1.162670 0 0 0
8 8 -4.326673 -0.290168 0.032073 0 0 0
9 9 -4.841681 -1.580449 1.326641 0 0 0
10 10 0.534463 -1.755881 1.363963 0 0 0
11 11 -2.936364 1.042851 1.010268 0 0 0
12 12 0.041393 0.735276 1.020731 0 0 0
13 13 3.590856 0.877008 1.085947 0 0 0
14 14 4.432898 4.025745 0.767610 0 0 0
15 15 4.264306 -4.487504 4.207670 0 0 0
ITEM: TIMESTEP 
28
ITEM: NUMBER OF ATOMS
15
ITEM: BOX BOUNDS
-5.000000 5.000000
-5.000000 5.000000
-5.000000 5.000000
ITEM: ATOMS id type x y z ix iy iz
1 1 1.604663 -3.767023 -0.941548 0 0 0
2 2 3.929651 -3.975857 -0.238630 0 0 0
3 3 1.184291 1.135280 -2.031912 0 0 0
4 4 -0.755273 3.541479 -1.259904 0 0 0
5 5 4.800457 4.387243 -1.988931 0 0 0
6 6 1.506677 -4.775802 1.528645 0 0 0
7 7 0.840248 -3.201719 1.965592 0 0 0
8 8 -3.589736 -0.342952 0.407231 0 0 0
9 9 -3.707958 -1.237488 1.246730 0 0 0
10 10 1.119252 -2.057311 1.105756 0 0 0
11 11 -2.801437 0.983594 0.777866 0 0 0
12 12 0.824163 0.748134 0.503741 0 0 0
13 13 4.264786 0.982241 1.818917 0 0 0
14 14 -4.288118 4.036473 1.238752 0 0 0
15 15 4.631356 -4.689165 4.156136 0 0 0
ITEM: TIMESTEP 
29
ITEM: NUMBER OF ATOMS
15
ITEM: BOX BOUNDS
-5.000000 5.000000
-5.000000 5.000000
-5.000000 5.000000
ITEM: ATOMS id type x y z ix iy iz
1 1 1.933222 -3.047166 -0.223472 0 0 0
2 2 0.858095 1.654089 -1.206361 0 0 0
3 3 -1.363622 4.024455 -1.798943 0 0 0
4 4 3.954855 3.744714 -1.269682 0 0 0
5 5 0.942171 -4.972031 2.150592 0 0 0
6 6 0.388573 -3.392511 2.373487 0 0 0
7 7 3.558262 -3.795087 1.062465 0 0 0
8 8 -3.661748 -1.072672 1.221639 0 0 0
9 9 -3.863529 -1.146944 2.234734 0 0 0
10 10 1.571935 -2.399763 2.200709 0 0 0
11 11 -3.174033 0.856132 1.483471 0 0 0
12 12 0.968105 0.531153 1.546243 0 0 0
13 13 -3.713017 4.329306 1.582559 0 0 0
14 14 4.313838 -4.840689 4.603225 0 0 0
15 15 3.555097 1.686547 3.471190 0 0 0
ITEM: TIMESTEP 
30
ITEM: NUMBER OF ATOMS
15
ITEM: BOX BOUNDS
-5.000000 5.000000
-5.000000 5.000000
-5.000000 5.000000
ITEM: ATOMS id type x y z ix iy iz
1 1 1.455210 -3.092073 -1.314217 0 0 0
2 2 1.170109 1.716720 -0.881752 0 0 0
3 3 -1.040718 4.535723 -1.460809 0 0 0
4 4 3.773484 2.539443 -1.324050 0 0 0
5 5 0.224843 -3.542867 1.717771 0 0 0
6 6 0.972816 -4.983088 2.093572 0 0 0
7 7 3.334960 -3.633711 0.037238 0 0 0
8 8 -3.665581 -1.044293 0.374420 0 0 0
9 9 -3.707578 -1.016100 1.422322 0 0 0
10 10 1.718982 -2.317728 1.118338 0 0 0
11 11 -3.876873 0.445690 0.562882 0 0 0
12 12 0.729971 0.271342 1.093949 0 0 0
13 13 -3.235781 2.789077 0.833698 0 0 0
14 14 4.705787 -4.767782 4.353795 0 0 0
15 15 4.704834 2.134456 2.793862 0 0 0
ITEM: TIMESTEP 
31
ITEM: NUMBER OF ATOMS
15
ITEM: BOX BOUNDS
-5.000000 5.000000
-5.000000 5.000000
-5.000000 5.000000
ITEM: ATOMS id type x y z ix iy iz
1 1 0.384632 -3.114607 -1.135098 0 0 0
2 2 -0.563424 0.921381 -0.110028 0 0 0
3 3 -1.741101 4.971495 -1.530657 0 0 0
4 4 2.677003 2.545784 -1.247956 0 0 0
5 5 -1.485911 -4.025098 1.952454 0 0 0
6 6 0.223266 -4.521937 1.410940 0 0 0
7 7 1.808687 -3.525158 0.139259 0 0 0
8 8 -4.491061 -0.550782 0.336635 0 0 0
9 9 0.469714 -2.272702 1.752155 0 0 0
10 10 3.699075 -1.737410 1.773240 0 0 0
11 11 -0.825853 0.857846 0.910326 0 0 0
12 12 4.363298 0.058688 0.973009 0 0 0
13 13 -4.234598 2.515080 1.353760 0 0 0
14 14 3.042074 -4.644922 4.472969 0 0 0
15 15 3.730039 2.058829 2.790715 0 0 0
ITEM: TIMESTEP 
32
ITEM: NUMBER OF ATOMS
15
ITEM: BOX BOUNDS
-5.000000 5.000000
-5.000000 5.000000
-5.000000 5.000000
ITEM: ATOMS id type x y z ix iy iz
1 1 1.248705 -3.988788 -1.182387 0 0 0
2 2 0.828244 0.638647 -0.142288 0 0 0
3 3 -0.538391 4.831706 -1.642800 0 0 0
4 4 3.927806 2.656281 -1.596286 0 0 0
5 5 -0.905643 -3.363893 1.912630 0 0 0
6 6 1.074784 -4.284680 1.144867 0 0 0
7 7 3.445527 -3.667348 0.247264 0 0 0
8 8 -3.942461 -0.590522 0.579656 0 0 0
9 9 -4.277005 -1.563808 2.094238 0 0 0
10 10 1.860115 -2.096338 0.927952 0 0 0
11 11 -3.679199 0.088709 1.507499 0 0 0
12 12 -0.339677 1.443579 0.844978 0 0 0
13 13 -3.533293 3.168504 0.762983 0 0 0
14 14 4.388235 -4.746140 4.432392 0 0 0
15 15 4.429101 1.713509 3.595074 0 0 0
ITEM: TIMESTEP 
33
ITEM: NUMBER OF ATOMS
15
ITEM: BOX BOUNDS
-5.000000 5.000000
-5.000000 5.000000
-5.000000 5.000000
ITEM: ATOMS id type x y z ix iy iz
1 1 1.643380 -3.619674 -1.308461 0 0 0
2 2 -0.682803 4.535031 -1.798046 0 0 0
3 3 4.638544 2.693386 -1.320683 0 0 0
4 4 0.608691 -3.790069 1.581357 0 0 0
5 5 3.433239 -4.052382 0.613496 0 0 0
6 6 -3.942461 -0.590522 0.894263 0 0 0
7 7 -4.758810 -1.455421 2.393863 0 0 0
8 8 1.824555 -0.754472 2.044853 0 0 0
9 9 -3.679199 0.088709 1.822106 0 0 0
10 10 -0.362487 1.590155 2.155126 0 0 0
11 11 0.028455 0.709517 0.701973 0 0 0
12 12 -3.238646 3.877525 0.953529 0 0 0
13 13 -0.435644 -3.818479 3.022915 0 0 0
14 14 4.007395 -4.539732 4.306276 0 0 0
15 15 4.338240 1.633334 4.762977 0 0 0
ITEM: TIMESTEP 
34
ITEM: NUMBER OF ATOMS
15
ITEM: BOX BOUNDS
-5.000000 5.000000
-5.000000 5.000000
-5.000000 5.000000
ITEM: ATOMS id type x y z ix iy iz
1 1 1.160372 -3.751167 -0.548451 0 0 0
2 2 -1.438687 4.480654 -2.389610 0 0 0
3 3 4.801946 3.060445 -1.265458 0 0 0
4 4 1.116587 -4.055088 2.188418 0 0 0
5 5 2.815973 -3.615511 1.893826 0 0 0
6 6 -4.852411 -1.688126 2.486393 0 0 0
7 7 -4.292640 -0.327134 0.818489 0 0 0
8 8 2.254825 -0.762949 2.339742 0 0 0
9 9 -4.177162 0.795792 0.899235 0 0 0
10 10 -0.315031 1.598804 1.986255 0 0 0
11 11 0.821748 0.731726 1.642548 0 0 0
12 12 -3.484355 3.602768 1.405668 0 0 0
13 13 -0.628970 -3.334913 4.290363 0 0 0
14 14 3.380164 -4.268236 4.625642 0 0 0
15 15 4.241879 0.979938 4.723475 0 0 0
ITEM: TIMESTEP 
35
ITEM: NUMBER OF ATOMS
15
ITEM: BOX BOUNDS
-5.000000 5.000000
-5.000000 5.000000
-5.000000 5.000000
ITEM: ATOMS id type x y z ix iy iz
1 1 0.330487 -3.551151 -0.690308 0 0 0
2 2 -3.014354 4.762102 -2.233894 0 0 0
3 3 3.656005 2.808228 -1.409269 0 0 0
4 4 0.010283 -3.916256 2.084727 0 0 0
5 5 1.108957 -4.154317 1.876735 0 0 0
6 6 1.150388 -0.723396 2.094979 0 0 0
7 7 3.438865 -1.688126 2.486393 0 0 0
8 8 4.132547 -0.378262 1.215331 0 0 0
9 9 -1.699142 1.766124 2.471347 0 0 0
10 10 -1.028744 0.579433 2.090185 0 0 0
11 11 3.472224 0.350836 0.775450 0 0 0
12 12 -4.651927 3.537349 1.122800 0 0 0
13 13 -1.898093 -3.361793 4.971621 0 0 0
14 14 1.165131 -4.481207 4.583632 0 0 0
15 15 3.102624 0.888561 4.290618 0 0 0
ITEM: TIMESTEP 
36
ITEM: NUMBER OF ATOMS
15
ITEM: BOX BOUNDS
-5.000000 5.000000
-5.000000 5.000000
-5.000000 5.000000
ITEM: ATOMS id type x y z ix iy iz
1 1 -1.689419 -4.338721 -0.800046 0 0 0
2 2 -4.700624 4.436282 -1.837147 0 0 0
3 3 1.127206 3.317635 -2.283888 0 0 0
4 4 -1.432667 -3.717410 1.863497 0 0 0
5 5 0.084745 -4.106672 1.175410 0 0 0
6 6 0.206001 -1.128587 2.448153 0 0 0
7 7 1.839653 -0.997882 2.396896 0 0 0
8 8 3.420049 -0.071729 1.335919 0 0 0
9 9 -3.428823 1.792168 2.400772 0 0 0
10 10 -2.085160 0.636062 1.216867 0 0 0
11 11 1.711659 0.666677 0.244582 0 0 0
12 12 4.345266 3.850320 0.791221 0 0 0
13 13 -3.283518 -3.442889 4.539597 0 0 0
14 14 -0.759007 -4.496296 4.403610 0 0 0
15 15 1.943838 1.094948 4.846639 0 0 0
ITEM: TIMESTEP 
37
ITEM: NUMBER OF ATOMS
15
ITEM: BOX BOUNDS
-5.000000 5.000000
-5.000000 5.000000
-5.000000 5.000000
ITEM: ATOMS id type x y z ix iy iz
1 1 0.519155 1.881233 -2.404238 0 0 0
2 2 -3.685542 2.648977 -1.596655 0 0 0
3 3 -1.553343 3.420202 -0.170866 0 0 0
4 4 -1.477785 -4.992173 1.949481 0 0 0
5 5 1.696655 -1.403671 2.353505 0 0 0
6 6 0.304790 -1.960160 1.840988 0 0 0
7 7 3.841892 -1.560590 1.422830 0 0 0
8 8 -3.260718 0.728246 2.362436 0 0 0
9 9 -2.151149 0.071467 0.554784 0 0 0
10 10 0.956680 0.784210 0.505571 0 0 0
11 11 0.083031 4.325342 1.309990 0 0 0
12 12 4.003586 2.995797 0.710742 0 0 0
13 13 -3.099781 -4.412156 4.173199 0 0 0
14 14 -0.763398 -4.979975 4.397179 0 0 0
15 15 1.562183 -0.832143 4.713178 0 0 0
ITEM: TIMESTEP 
38
ITEM: NUMBER OF ATOMS
15
ITEM: BOX BOUNDS
-5.000000 5.000000
-5.000000 5.000000
-5.000000 5.000000
ITEM: ATOMS id type x y z ix iy iz
1 1 0.103574 2.020524 -2.245391 0 0 0
2 2 -3.477745 3.309758 -1.695677 0 0 0
3 3 -0.993996 4.012180 -0.754338 0 0 0
4 4 -1.004767 -3.985476 2.019306 0 0 0
5 5 2.130867 -0.883213 2.412786 0 0 0
6 6 0.066977 -1.410073 2.149900 0 0 0
7 7 4.524904 -0.623460 0.455104 0 0 0
8 8 -3.944248 1.030260 2.301929 0 0 0
9 9 -2.107974 0.523250 0.683938 0 0 0
10 10 1.925754 1.821616 0.261132 0 0 0
11 11 0.234091 4.330081 0.960624 0 0 0
12 12 4.362968 3.663773 0.249394 0 0 0
13 13 -3.874159 -4.390143 4.584056 0 0 0
14 14 -0.736950 -4.592714 4.712690 0 0 0
15 15 1.824141 -0.260010 4.742084 0 0 0
ITEM: TIMESTEP 
39
ITEM: NUMBER OF ATOMS
15
ITEM: BOX BOUNDS
-5.000000 5.000000
-5.000000 5.000000
-5.000000 5.000000
ITEM: ATOMS id type x y z ix iy iz
1 1 -3.394768 -4.773443 -3.585819 0 0 0
2 2 -1.375400 -4.495321 -3.891637 0 0 0
3 3 1.225400 -0.160522 -3.650545 0 0 0
4 4 0.245842 2.187796 -0.874710 0 0 0
5 5 -3.145036 2.886983 -0.393081 0 0 0
6 6 4.352107 -0.425360 1.232142 0 0 0
7 7 1.174328 1.250951 1.177121 0 0 0
8 8 -1.274711 3.327284 0.921798 0 0 0
9 9 4.751434 3.493786 1.696290 0 0 0
10 10 -0.397388 -3.686927 3.689292 0 0 0
11 11 0.093057 -1.435661 4.073412 0 0 0
12 12 2.095744 -1.063766 3.866648 0 0 0
13 13 -3.916182 1.101836 3.810445 0 0 0
14 14 -2.128699 1.262280 3.015541 0 0 0
15 15 0.711161 3.946905 3.482328 0 0 0
ITEM: TIMESTEP 
40
ITEM: NUMBER OF ATOMS
15
ITEM: BOX BOUNDS
-5.000000 5.000000
-5.000000 5.000000
-5.000000 5.000000
ITEM: ATOMS id type x y z ix iy iz
1 1 -3.740814 -4.387813 -3.997051 0 0 0
2 2 -1.299249 -3.974757 -3.521092 0 0 0
3 3 0.779822 -0.066538 -3.545718 0 0 0
4 4 0.886857 1.689941 -1.295692 0 0 0
5 5 4.482718 -0.566507 1.556026 0 0 0
6 6 1.030627 0.885799 0.678361 0 0 0
7 7 -2.798047 2.518536 0.524270 0 0 0
8 8 -0.820683 2.868339 0.347599 0 0 0
9 9 4.235609 3.320440 1.369571 0 0 0
10 10 -0.447103 -3.316510 2.945042 0 0 0
11 11 0.003731 -1.397157 3.532995 0 0 0