ITEM: TIMESTEP 
0
ITEM: NUMBER OF ATOMS
100
ITEM: BOX BOUNDS
-5.000000 5.000000
-5.000000 5.000000
-5.000000 5.000000
ITEM: ATOMS id type x y z ix iy iz
1 1 -4.701278 -4.101764 -1.948062 0 0 0
2 2 -4.650400 -3.536990 -0.646628 0 0 0
3 3 0.000000 -3.144604 0.000000 0 0 0
4 4 -2.338029 -3.781770 -1.826135 0 0 0
5 5 -2.000000 -3.144604 0.000000 0 0 0
6 6 -0.137316 -4.143584 -2.046614 0 0 0
7 7 -1.696997 -4.344349 -0.093890 0 0 0
8 8 2.093025 -3.156205 -1.375493 0 0 0
9 9 1.458466 -3.867907 -1.827051 0 0 0
10 10 1.702260 -4.415837 -0.748781 0 0 0
11 11 2.204609 -4.411177 -2.157425 0 0 0
12 12 -4.000000 -1.144604 0.000000 0 0 0
13 13 -4.036799 -1.079115 -1.914147 0 0 0
14 14 -2.000000 -1.144604 0.000000 0 0 0
15 15 0.000000 -1.144604 -2.000000 0 0 0
16 16 0.000000 -1.144604 0.000000 0 0 0
17 17 -2.000000 -1.144604 -2.000000 0 0 0
18 18 1.620380 -0.542017 -0.830270 0 0 0
19 19 2.472123 -1.039794 -1.978269 0 0 0
20 20 4.641802 -1.209245 -0.454497 0 0 0
21 21 4.000000 -1.144604 -2.000000 0 0 0
22 22 4.562599 -1.504862 -1.311048 0 0 0
23 23 3.171160 -1.936118 -0.436848 0 0 0
24 24 -4.000000 1.355396 0.000000 0 0 0
25 25 -4.526551 0.694742 -1.017588 0 0 0
26 26 -1.861121 1.917228 -0.354026 0 0 0
27 27 -0.852669 1.670721 -1.391330 0 0 0
28 28 0.000000 1.355396 0.000000 0 0 0
29 29 -2.000000 1.355396 0.000000 0 0 0
30 30 -2.000000 1.355396 -2.000000 0 0 0
31 31 0.000000 1.355396 -2.000000 0 0 0
32 32 1.150683 1.681688 -1.430207 0 0 0
33 33 1.599117 0.838096 -2.259691 0 0 0
34 34 2.493563 1.063567 -0.502687 0 0 0
35 35 3.811755 2.046990 -2.176076 0 0 0
36 36 4.805784 1.017111 -0.361504 0 0 0
37 37 4.000000 1.355396 -2.000000 0 0 0
38 38 -3.636451 4.823710 -0.791503 0 0 0
39 39 -4.554733 4.302903 -1.115514 0 0 0
40 40 -4.000000 3.355395 0.000000 0 0 0
41 41 -3.551172 3.832210 -1.817140 0 0 0
42 42 -0.146509 4.702611 -0.254410 0 0 0
43 43 -2.000000 4.855396 -2.000000 0 0 0
44 44 0.000000 4.855396 -2.000000 0 0 0
45 45 -0.252739 3.757803 -0.969626 0 0 0
46 46 -0.381941 3.381635 -1.932681 0 0 0
47 47 2.395868 3.487259 -1.927509 0 0 0
48 48 3.120644 4.736669 -0.774858 0 0 0
49 49 4.323970 4.216590 -1.689389 0 0 0
50 50 4.050357 3.733432 -0.052047 0 0 0
51 51 -3.273717 -4.060498 0.433578 0 0 0
52 52 -3.901951 -4.498703 1.878870 0 0 0
53 53 -0.220657 -3.296042 2.430137 0 0 0
54 54 -1.582405 -3.144039 1.560149 0 0 0
55 55 3.707254 -3.971970 0.457788 0 0 0
56 56 4.393454 -3.940400 1.179655 0 0 0
57 57 -3.640805 -0.241340 0.707121 0 0 0
58 58 -2.138274 -1.535023 1.404692 0 0 0
59 59 0.000000 -1.144604 2.000000 0 0 0
60 60 0.684192 -1.446094 0.712823 0 0 0
61 61 0.663528 -1.798631 0.134473 0 0 0
62 62 4.816261 -0.383278 2.235615 0 0 0
63 63 -2.987215 1.338389 1.721635 0 0 0
64 64 0.000000 1.355396 2.000000 0 0 0
65 65 -2.000000 1.355396 2.000000 0 0 0
66 66 2.491019 2.439987 1.168288 0 0 0
67 67 2.279176 0.630067 2.367372 0 0 0
68 68 4.000000 1.355396 2.000000 0 0 0
69 69 -3.524320 3.384160 1.864383 0 0 0
70 70 -1.542941 4.513713 0.920419 0 0 0
71 71 -0.784764 4.859344 1.777538 0 0 0
72 72 -1.072188 3.106276 0.485754 0 0 0
73 73 -1.290903 3.460978 1.933796 0 0 0
74 74 1.131359 4.394843 2.308610 0 0 0
75 75 4.892733 3.480585 1.029061 0 0 0
76 76 -3.395972 -3.560561 2.807942 0 0 0
77 77 -4.918826 -3.653850 4.361120 0 0 0
78 78 -2.487343 -3.053636 4.420084 0 0 0
79 79 -0.701321 -3.612223 3.793472 0 0 0
80 80 2.101097 -3.331421 4.631800 0 0 0
81 81 1.074071 -3.858147 3.372269 0 0 0
82 82 -4.950610 -0.963027 4.465311 0 0 0
83 83 -2.340780 -0.508224 3.170685 0 0 0
84 84 0.000000 -1.144604 4.000000 0 0 0
85 85 2.020556 -1.213820 3.660261 0 0 0
86 86 2.753488 -1.290175 4.647156 0 0 0
87 87 3.784019 -1.982389 2.901792 0 0 0
88 88 -4.104185 2.064679 3.541420 0 0 0
89 89 -3.426567 0.920815 4.927247 0 0 0
90 90 -1.788862 2.014158 4.548608 0 0 0
91 91 -1.275955 0.688269 4.217452 0 0 0
92 92 -0.416739 1.283456 3.735103 0 0 0
93 93 0.403181 2.213910 2.675059 0 0 0
94 94 2.000000 1.355396 4.000000 0 0 0
95 95 2.789047 1.061853 3.091668 0 0 0
96 96 4.634398 0.797044 3.111157 0 0 0
97 97 -0.233556 4.972845 4.816215 0 0 0
98 98 -1.796523 3.796335 3.608176 0 0 0
99 99 -2.281647 3.708312 4.602505 0 0 0
100 100 2.711676 4.706882 4.636601 0 0 0
ITEM: TIMESTEP 
1
ITEM: NUMBER OF ATOMS
100
ITEM: BOX BOUNDS
-5.000000 5.000000
-5.000000 5.000000
-5.000000 5.000000
ITEM: ATOMS id type x y z ix iy iz
1 1 -4.962546 -4.344569 -3.254922 0 0 0
2 2 -2.338029 -3.781770 -3.396991 0 0 0
3 3 -0.137316 -4.143584 -3.617470 0 0 0
4 4 2.204609 -4.411177 -3.728282 0 0 0
5 5 1.031732 -4.548287 -3.935530 0 0 0
6 6 -4.029896 -0.629046 -3.524285 0 0 0
7 7 -1.407564 -0.947297 -3.834911 0 0 0
8 8 2.426810 -1.044188 -3.760267 0 0 0
9 9 4.000000 -1.144604 -3.570856 0 0 0
10 10 4.928717 -1.401743 -3.165556 0 0 0
11 11 -4.679736 0.047010 -3.178596 0 0 0
12 12 -1.578166 0.995785 -3.947457 0 0 0
13 13 -0.753564 2.164888 -3.203970 0 0 0
14 14 0.000000 1.355396 -3.570856 0 0 0
15 15 1.599117 0.838096 -3.830547 0 0 0
16 16 0.906569 2.047942 -3.554708 0 0 0
17 17 4.791849 1.135355 -3.639812 0 0 0
18 18 -3.149384 3.542925 -4.043234 0 0 0
19 19 -0.381941 3.381635 -3.503537 0 0 0
20 20 -0.981497 4.425354 -3.684681 0 0 0
21 21 -2.000000 4.855396 -3.570856 0 0 0
22 22 4.575499 4.064939 -3.165512 0 0 0
23 23 -3.930302 -4.151276 -2.110271 0 0 0
24 24 -2.791399 -3.581632 -0.838199 0 0 0
25 25 -4.216972 -4.545253 -1.515975 0 0 0
26 26 -1.696997 -4.344349 -1.164747 0 0 0
27 27 0.000000 -3.144604 -1.070856 0 0 0
28 28 -2.349353 -3.152197 -1.509996 0 0 0
29 29 1.702260 -4.415837 -1.819638 0 0 0
30 30 0.769305 -3.324633 -1.806494 0 0 0
31 31 3.541448 -3.951383 -1.526481 0 0 0
32 32 4.514952 -2.641906 -1.090970 0 0 0
33 33 -4.204919 -0.224759 -1.353863 0 0 0
34 34 -3.639568 -0.295191 -1.001365 0 0 0
35 35 0.000000 -1.144604 -1.070856 0 0 0
36 36 -1.384353 -2.448761 -1.963678 0 0 0
37 37 -1.470071 -0.755325 -1.176136 0 0 0
38 38 -1.818535 -0.119298 -0.872097 0 0 0
39 39 2.426222 -0.197142 -2.465410 0 0 0
40 40 1.428969 -0.463393 -0.845945 0 0 0
41 41 0.996713 -1.689367 -1.515131 0 0 0
42 42 2.923020 -2.371799 -1.484176 0 0 0
43 43 4.527524 -0.985895 -1.085364 0 0 0
44 44 -3.086637 2.345425 -1.216119 0 0 0
45 45 -1.985000 2.292355 -1.599569 0 0 0
46 46 0.000000 1.355396 -1.070856 0 0 0
47 47 -2.000000 1.355396 -1.070856 0 0 0
48 48 2.493563 1.063567 -1.573543 0 0 0
49 49 3.295753 0.703204 -2.376867 0 0 0
50 50 4.805784 1.017111 -1.432360 0 0 0
51 51 -4.325781 2.787567 -1.202730 0 0 0
52 52 -3.636451 4.823710 -1.862359 0 0 0
53 53 -4.554733 4.302903 -2.186370 0 0 0
54 54 -2.742078 3.810405 -0.828147 0 0 0
55 55 -0.146509 4.702611 -1.325267 0 0 0
56 56 -0.434938 3.345217 -1.858660 0 0 0
57 57 -1.542941 4.513713 -0.650437 0 0 0
58 58 -0.742738 3.508350 -0.688789 0 0 0
59 59 0.754294 2.763724 -2.297733 0 0 0
60 60 2.710906 4.845756 -2.232391 0 0 0
61 61 4.360413 3.093641 -1.648890 0 0 0
62 62 -3.526625 -4.386918 1.784115 0 0 0
63 63 -0.175051 -3.243030 0.079005 0 0 0
64 64 -1.275613 -3.662166 0.449954 0 0 0
65 65 0.336160 -4.042280 1.891065 0 0 0
66 66 -2.348767 -0.163625 1.060718 0 0 0
67 67 -2.340780 -0.508224 1.599829 0 0 0
68 68 1.362388 -0.491987 1.541577 0 0 0
69 69 3.945801 -1.370123 0.765697 0 0 0
70 70 4.322474 -1.505721 1.858108 0 0 0
71 71 -2.989543 1.577288 0.751787 0 0 0
72 72 -3.640000 2.190137 1.110087 0 0 0
73 73 -0.167674 1.287195 0.992003 0 0 0
74 74 -1.674641 1.018587 1.362983 0 0 0
75 75 1.973251 0.274753 0.209300 0 0 0
76 76 2.094733 2.170114 0.300640 0 0 0
77 77 1.609931 1.514887 1.684793 0 0 0
78 78 0.403181 2.213910 1.104203 0 0 0
79 79 4.869137 0.826859 0.341955 0 0 0
80 80 2.635172 1.176299 1.581336 0 0 0
81 81 -0.784764 4.859344 0.706682 0 0 0
82 82 -1.126054 2.859599 0.635124 0 0 0
83 83 1.004381 3.492878 0.762145 0 0 0
84 84 4.396001 4.130036 0.515680 0 0 0
85 85 -4.714964 -3.959978 2.851310 0 0 0
86 86 -0.081483 -2.803643 3.104891 0 0 0
87 87 -1.116873 -2.709252 3.482745 0 0 0
88 88 2.294046 -4.307677 3.469700 0 0 0
89 89 -2.607570 -1.316494 2.851711 0 0 0
90 90 -0.031199 -1.705243 3.805604 0 0 0
91 91 2.753488 -1.290175 3.576299 0 0 0
92 92 -2.954006 1.928276 3.560834 0 0 0
93 93 -1.788862 2.014158 3.477752 0 0 0
94 94 -1.745671 0.026572 2.974671 0 0 0
95 95 -0.123180 1.907075 3.299381 0 0 0
96 96 4.725483 0.681448 2.739426 0 0 0
97 97 -0.398377 4.052618 3.808749 0 0 0
98 98 -1.328372 2.965274 3.169916 0 0 0
99 99 -2.062358 3.597515 3.526623 0 0 0
100 100 3.188318 4.896835 3.062765 0 0 0
ITEM: TIMESTEP 
2
ITEM: NUMBER OF ATOMS
100
ITEM: BOX BOUNDS
-5.000000 5.000000
-5.000000 5.000000
-5.000000 5.000000
ITEM: ATOMS id type x y z ix iy iz
1 1 1.031732 -4.548287 -2.772126 0 0 0
2 2 2.345839 -4.550684 -3.092215 0 0 0
3 3 -3.450299 -0.561661 -2.889521 0 0 0
4 4 -1.106236 -1.806336 -3.668443 0 0 0
5 5 -1.444013 -0.412861 -4.403524 0 0 0
6 6 2.007376 -0.488708 -2.790338 0 0 0
7 7 3.197968 -0.768244 -2.732769 0 0 0
8 8 -4.756682 0.268812 -2.764850 0 0 0
9 9 -1.754193 2.496828 -4.151167 0 0 0
10 10 0.437188 0.290751 -3.107711 0 0 0
11 11 -2.628405 3.263722 -3.528178 0 0 0
12 12 -0.970237 4.860988 -3.036171 0 0 0
13 13 -1.019625 4.528528 -4.490734 0 0 0
14 14 3.232497 4.420375 -4.492374 0 0 0
15 15 -2.938792 -4.044429 -0.532060 0 0 0
16 16 -4.216972 -4.545253 -0.352572 0 0 0
17 17 -3.352671 -3.480859 -1.502738 0 0 0
18 18 -2.349353 -3.152197 -0.346593 0 0 0
19 19 -1.696997 -4.344349 -0.001343 0 0 0
20 20 -0.261708 -4.636243 -1.616290 0 0 0
21 21 -2.379647 -3.529474 -1.724384 0 0 0
22 22 2.032125 -3.830346 -0.501962 0 0 0
23 23 4.567828 -3.714825 -0.834025 0 0 0
24 24 3.023013 -3.338133 -0.265391 0 0 0
25 25 -3.243510 -0.499288 -0.706792 0 0 0
26 26 -1.372050 -0.588267 -0.254559 0 0 0
27 27 2.426222 -0.197142 -1.302006 0 0 0
28 28 1.743353 -1.766403 -0.122251 0 0 0
29 29 3.565160 -1.509946 -1.060210 0 0 0
30 30 2.649591 -1.966434 -0.389686 0 0 0
31 31 4.928717 -1.401743 -1.502152 0 0 0
32 32 -3.086637 2.345425 -0.052715 0 0 0
33 33 -2.467304 0.790964 -1.015015 0 0 0
34 34 -1.830380 2.126376 -1.064173 0 0 0
35 35 -0.390399 1.205912 -1.549571 0 0 0
36 36 -1.673667 1.044991 -1.374010 0 0 0
37 37 -0.753564 2.164888 -1.540567 0 0 0
38 38 1.235905 1.511507 -0.758941 0 0 0
39 39 1.850609 2.109490 -1.869471 0 0 0
40 40 3.420305 0.113678 -1.046569 0 0 0
41 41 3.101953 0.184377 -1.632088 0 0 0
42 42 -3.636451 4.823710 -0.698955 0 0 0
43 43 -4.382220 4.095984 -0.941606 0 0 0
44 44 -0.434938 3.345217 -0.695256 0 0 0
45 45 -1.112927 4.630471 -1.092338 0 0 0
46 46 -0.822164 4.210531 -1.432059 0 0 0
47 47 -0.088808 2.989676 -1.681951 0 0 0
48 48 2.659464 4.920703 -1.018731 0 0 0
49 49 4.150327 3.718791 -0.898363 0 0 0
50 50 4.267502 2.795500 -1.221726 0 0 0
51 51 -3.477683 -3.868363 0.864861 0 0 0
52 52 -1.111650 -4.322642 1.172502 0 0 0
53 53 -0.175051 -3.243030 1.242408 0 0 0
54 54 -0.910330 -2.820519 0.622903 0 0 0
55 55 0.773831 -2.612252 1.026653 0 0 0
56 56 -4.507757 -1.136512 1.037246 0 0 0
57 57 -2.435701 -0.103298 1.229656 0 0 0
58 58 -2.143457 -1.989882 1.282002 0 0 0
59 59 -1.509679 -0.001413 0.839022 0 0 0
60 60 -0.107430 -0.816280 1.574397 0 0 0
61 61 -1.911229 -1.973904 0.544700 0 0 0
62 62 1.278848 -0.170073 1.625003 0 0 0
63 63 2.171622 -0.259456 1.071889 0 0 0
64 64 4.690835 -1.028805 1.665082 0 0 0
65 65 -3.640000 2.190137 2.273491 0 0 0
66 66 -3.112978 1.730757 1.230721 0 0 0
67 67 -0.613409 1.498029 1.558089 0 0 0
68 68 0.000000 1.355396 0.592547 0 0 0
69 69 2.480173 0.855510 1.794461 0 0 0
70 70 2.094733 2.170114 1.464043 0 0 0
71 71 3.063528 0.323687 2.412231 0 0 0
72 72 3.488050 0.882405 0.739454 0 0 0
73 73 -2.930236 4.012821 0.664925 0 0 0
74 74 -3.933489 2.837142 0.952956 0 0 0
75 75 -1.542941 4.513713 1.012967 0 0 0
76 76 -0.648924 3.569963 0.842019 0 0 0
77 77 0.098105 3.555691 1.887996 0 0 0
78 78 1.219365 2.762315 1.275156 0 0 0
79 79 -2.877737 -3.205122 3.728396 0 0 0
80 80 -3.910602 -4.264445 3.824028 0 0 0
81 81 -1.690845 -4.056138 3.930089 0 0 0
82 82 -0.181521 -2.895517 3.812073 0 0 0
83 83 1.188783 -3.196408 4.654315 0 0 0
84 84 0.614390 -3.250032 3.438214 0 0 0
85 85 -3.668053 -0.432175 4.408095 0 0 0
86 86 3.200176 -1.984477 4.057174 0 0 0
87 87 3.230659 -1.730483 3.220216 0 0 0
88 88 -3.916301 1.745959 4.455644 0 0 0
89 89 -1.252311 0.460677 4.226223 0 0 0
90 90 -0.603244 2.309267 4.072876 0 0 0
91 91 -2.141808 1.708734 3.554748 0 0 0
92 92 1.315398 1.691341 3.832742 0 0 0
93 93 0.354238 2.278218 3.876421 0 0 0
94 94 2.849631 1.769043 4.924929 0 0 0
95 95 3.532933 1.496652 3.059351 0 0 0
96 96 -1.328372 2.965274 4.333320 0 0 0
97 97 -2.391855 3.961758 4.178946 0 0 0
98 98 -2.295367 4.651522 3.382993 0 0 0
99 99 -2.018804 2.755664 3.277649 0 0 0
100 100 4.490042 4.904200 3.241198 0 0 0
ITEM: TIMESTEP 
3
ITEM: NUMBER OF ATOMS
100
ITEM: BOX BOUNDS
-5.000000 5.000000
-5.000000 5.000000
-5.000000 5.000000
ITEM: ATOMS id type x y z ix iy iz
1 1 0.151238 -4.864259 -3.274670 0 0 0
2 2 2.345839 -4.550684 -3.495327 0 0 0
3 3 -4.345688 -0.093418 -3.793408 0 0 0
4 4 -1.827089 -1.174031 -4.412101 0 0 0
5 5 -0.625338 -1.134429 -4.332795 0 0 0
6 6 -1.817662 -0.719599 -3.210566 0 0 0
7 7 2.146564 -1.461026 -3.524994 0 0 0
8 8 2.825816 -0.605637 -2.989862 0 0 0
9 9 -3.628208 0.965160 -3.233313 0 0 0
10 10 -0.438748 1.681176 -3.242572 0 0 0
11 11 1.892499 1.473306 -3.716599 0 0 0
12 12 2.106874 1.549765 -3.203425 0 0 0
13 13 -1.410442 4.639729 -4.254241 0 0 0
14 14 -0.795367 4.800343 -3.249177 0 0 0
15 15 3.388611 3.766259 -4.353232 0 0 0
16 16 -2.938792 -4.044429 -0.935171 0 0 0
17 17 -4.398010 -4.205566 -1.077673 0 0 0
18 18 -3.352671 -3.480859 -1.905850 0 0 0
19 19 -3.272944 -3.246342 -0.732461 0 0 0
20 20 -2.365671 -2.678983 -1.154418 0 0 0
21 21 -0.261708 -4.636243 -2.019402 0 0 0
22 22 -0.998520 -3.836345 -0.655448 0 0 0
23 23 -2.379647 -3.529474 -2.127496 0 0 0
24 24 1.995614 -4.434656 -1.066863 0 0 0
25 25 3.333435 -3.467575 -1.304287 0 0 0
26 26 4.360188 -3.656732 -1.713523 0 0 0
27 27 -3.551986 -0.827507 -1.857529 0 0 0
28 28 2.426222 -0.197142 -1.705118 0 0 0
29 29 1.743353 -1.766403 -0.525362 0 0 0
30 30 2.688817 -0.605885 -0.744812 0 0 0
31 31 4.860657 -2.297803 -1.463273 0 0 0
32 32 2.717072 -1.521591 -1.094620 0 0 0
33 33 -2.799472 2.030326 -1.230507 0 0 0
34 34 -2.864613 1.248677 -0.791832 0 0 0
35 35 -2.246756 0.449566 -1.304611 0 0 0
36 36 -0.390399 1.205912 -1.952682 0 0 0
37 37 -0.753564 2.164888 -1.943678 0 0 0
38 38 -1.615599 1.200739 -1.695772 0 0 0
39 39 -1.830380 2.126376 -1.467285 0 0 0
40 40 1.716595 2.149802 -1.347436 0 0 0
41 41 3.101953 0.184377 -2.035199 0 0 0
42 42 4.642120 0.052980 -1.218433 0 0 0
43 43 -3.902452 4.408038 -1.351667 0 0 0
44 44 -2.868746 3.858657 -2.043350 0 0 0
45 45 -1.607535 4.427201 -1.412185 0 0 0
46 46 -0.434938 3.345217 -1.098367 0 0 0
47 47 -0.088808 2.989676 -2.085063 0 0 0
48 48 -0.822164 4.210531 -1.835171 0 0 0
49 49 -0.649805 3.848865 -0.687897 0 0 0
50 50 2.611460 4.699824 -1.553583 0 0 0
51 51 4.718747 3.694422 -1.459883 0 0 0
52 52 3.545073 2.787408 -1.614401 0 0 0
53 53 -0.175051 -3.243030 0.839297 0 0 0
54 54 -1.111650 -4.322642 0.769391 0 0 0
55 55 -0.910330 -2.820519 0.219792 0 0 0
56 56 2.144465 -4.060125 1.344182 0 0 0
57 57 -4.387000 -0.348192 0.756737 0 0 0
58 58 -2.435701 -0.103298 0.826545 0 0 0
59 59 -1.467541 -2.319711 1.537613 0 0 0
60 60 -1.531169 -0.059344 0.399181 0 0 0
61 61 -0.107430 -0.816280 1.171285 0 0 0
62 62 -2.428645 -1.042231 0.190018 0 0 0
63 63 2.353252 -0.203541 0.784500 0 0 0
64 64 1.278848 -0.170073 1.221892 0 0 0
65 65 4.852677 -1.005650 0.386396 0 0 0
66 66 -4.191227 2.482399 1.794810 0 0 0
67 67 -1.104116 0.944143 1.538845 0 0 0
68 68 -0.729488 2.420122 0.139558 0 0 0
69 69 1.852483 1.254912 0.665446 0 0 0
70 70 0.643852 0.890006 1.204409 0 0 0
71 71 1.625150 1.232092 1.834509 0 0 0
72 72 4.903091 0.456386 0.871643 0 0 0
73 73 3.431485 0.281618 0.773370 0 0 0
74 74 -3.202596 2.595701 1.266489 0 0 0
75 75 -2.558520 4.320104 1.035949 0 0 0
76 76 -1.388573 4.526228 0.766153 0 0 0
77 77 -1.652134 2.933902 1.808065 0 0 0
78 78 0.627050 2.754329 1.080665 0 0 0
79 79 0.244216 3.463771 1.778549 0 0 0
80 80 -3.149788 -3.446793 4.112500 0 0 0
81 81 -4.269473 -4.420503 4.292820 0 0 0
82 82 -1.304989 -3.631615 2.535636 0 0 0
83 83 -0.422418 -4.098239 3.366809 0 0 0
84 84 1.586736 -4.027833 4.489866 0 0 0
85 85 1.401064 -4.040500 2.687882 0 0 0
86 86 -3.751972 -1.800212 2.912104 0 0 0
87 87 3.927318 -2.039791 3.431766 0 0 0
88 88 3.333628 -0.985391 3.231079 0 0 0
89 89 -3.841726 0.946812 2.866958 0 0 0
90 90 -0.533677 1.484447 3.801844 0 0 0
91 91 -0.808415 0.489741 3.229301 0 0 0
92 92 -2.417319 1.274564 3.171002 0 0 0
93 93 1.085309 2.056685 4.301669 0 0 0
94 94 3.433133 1.017099 3.456242 0 0 0
95 95 4.779215 1.949428 3.673229 0 0 0
96 96 -2.597420 3.053845 4.337485 0 0 0
97 97 -1.609815 2.589334 3.432918 0 0 0
98 98 -2.391855 3.961758 3.775835 0 0 0
99 99 -2.295367 4.651522 2.979881 0 0 0
100 100 2.687341 3.766804 2.559669 0 0 0
ITEM: TIMESTEP 
4
ITEM: NUMBER OF ATOMS
100
ITEM: BOX BOUNDS
-5.000000 5.000000
-5.000000 5.000000
-5.000000 5.000000
ITEM: ATOMS id type x y z ix iy iz
1 1 -1.355548 -4.210678 -3.692627 0 0 0
2 2 1.178281 -3.407225 -4.811161 0 0 0
3 3 -3.851190 -0.650932 -3.686254 0 0 0
4 4 -1.341284 -0.815717 -4.948161 0 0 0
5 5 -2.298127 -0.652465 -3.957810 0 0 0
6 6 -2.412953 -1.854351 -4.468840 0 0 0
7 7 0.506267 -2.211992 -4.557254 0 0 0
8 8 1.282569 -0.550386 -4.345017 0 0 0
9 9 -4.143772 0.551668 -3.385088 0 0 0
10 10 -3.506137 0.980492 -2.670321 0 0 0
11 11 1.463161 1.833544 -2.527021 0 0 0
12 12 1.270055 0.771251 -3.004699 0 0 0
13 13 -2.281783 4.639729 -4.254241 0 0 0
14 14 -1.183719 4.573607 -2.930150 0 0 0
15 15 1.236213 3.334661 -4.915087 0 0 0
16 16 -4.783933 -2.682884 -1.390874 0 0 0
17 17 -3.890003 -2.902166 -0.226629 0 0 0
18 18 -3.810133 -4.044429 -0.935171 0 0 0
19 19 -3.737013 -2.678983 -1.154418 0 0 0
20 20 -3.750989 -3.529474 -2.127496 0 0 0
21 21 -1.067747 -4.510112 -1.318232 0 0 0
22 22 -1.773881 -3.904861 -0.196467 0 0 0
23 23 0.078452 -2.520458 -1.897610 0 0 0
24 24 1.230735 -3.485849 -1.348833 0 0 0
25 25 3.653456 -4.533915 -1.424546 0 0 0
26 26 4.230648 -4.205566 -1.077673 0 0 0
27 27 -4.857441 -0.025388 -2.083395 0 0 0
28 28 1.039110 -0.773248 -2.378523 0 0 0
29 29 0.872012 -1.766403 -0.525362 0 0 0
30 30 1.271867 -1.001601 -1.115032 0 0 0
31 31 3.877817 -1.964193 -1.188383 0 0 0
32 32 2.644880 -0.621948 -1.494641 0 0 0
33 33 -3.735955 1.248677 -0.791832 0 0 0
34 34 -3.934803 0.920123 -1.754938 0 0 0
35 35 -3.201722 2.126376 -1.467285 0 0 0
36 36 -3.618097 0.449566 -1.304611 0 0 0
37 37 -1.624906 2.164888 -1.943678 0 0 0
38 38 -1.748707 0.034219 -1.807998 0 0 0
39 39 -2.486941 1.200739 -1.695772 0 0 0
40 40 -1.031826 2.051394 -1.362162 0 0 0
41 41 1.730612 0.184377 -2.035199 0 0 0
42 42 3.638376 0.142865 -1.097394 0 0 0
43 43 -3.405499 4.765020 -1.119526 0 0 0
44 44 -4.539847 4.200921 -1.560895 0 0 0
45 45 -1.825990 4.354972 -0.386255 0 0 0
46 46 -0.960150 2.989676 -2.085063 0 0 0
47 47 -2.180462 4.056278 -2.200319 0 0 0
48 48 -1.306280 3.345217 -1.098367 0 0 0
49 49 -2.478877 4.427201 -1.412185 0 0 0
50 50 1.148286 4.061455 -1.705156 0 0 0
51 51 1.549263 2.889486 -1.737604 0 0 0
52 52 3.239272 2.899083 -1.553960 0 0 0
53 53 -3.797168 -4.234058 0.417215 0 0 0
54 54 -0.901408 -2.644729 1.005678 0 0 0
55 55 -1.477814 -2.599768 0.093125 0 0 0
56 56 0.734999 -4.361325 1.518770 0 0 0
57 57 -3.807043 -0.103298 0.826545 0 0 0
58 58 -3.799987 -1.042231 0.190018 0 0 0
59 59 -1.932300 -1.673555 2.483924 0 0 0
60 60 -1.954466 -0.179909 0.395008 0 0 0
61 61 -0.892144 -1.317417 1.297902 0 0 0
62 62 0.458665 -0.028681 0.351498 0 0 0
63 63 1.481910 -0.203541 0.784500 0 0 0
64 64 3.694690 -1.608564 0.316817 0 0 0
65 65 4.401570 -1.587554 0.215097 0 0 0
66 66 -2.296184 1.861185 0.233832 0 0 0
67 67 -1.116630 0.811461 1.809029 0 0 0
68 68 -0.697502 0.771023 1.284036 0 0 0
69 69 1.127395 1.598451 0.817329 0 0 0
70 70 0.870226 1.960357 1.856502 0 0 0
71 71 1.846105 0.448809 1.757751 0 0 0
72 72 4.081663 0.109168 0.102979 0 0 0
73 73 3.998021 0.357000 2.195308 0 0 0
74 74 -3.898575 3.197876 0.627235 0 0 0
75 75 -3.868411 4.287518 0.946367 0 0 0
76 76 -3.724546 2.926393 2.409453 0 0 0
77 77 -1.168637 3.604009 0.366499 0 0 0
78 78 -1.122987 3.196959 1.914430 0 0 0
79 79 0.291967 2.824547 1.100438 0 0 0
80 80 -3.715065 -3.810566 3.359474 0 0 0
81 81 -4.867030 -3.821422 4.181129 0 0 0
82 82 -3.418087 -2.884808 3.218973 0 0 0
83 83 -3.240276 -3.491892 4.019926 0 0 0
84 84 0.037678 -3.652426 2.598716 0 0 0
85 85 0.535169 -4.546204 2.934069 0 0 0
86 86 -3.475686 -1.349974 2.820183 0 0 0
87 87 1.958726 -1.603554 2.671832 0 0 0
88 88 2.688981 -0.736695 3.419235 0 0 0
89 89 -4.057054 0.209397 2.872859 0 0 0
90 90 -2.379067 0.439622 4.159484 0 0 0
91 91 -1.692282 1.874792 4.026784 0 0 0
92 92 -1.795747 0.597259 3.113653 0 0 0
93 93 -0.792115 0.212947 2.837498 0 0 0
94 94 1.254315 0.231487 4.010236 0 0 0
95 95 3.783305 1.935982 2.740165 0 0 0
96 96 -4.800636 2.838088 3.474805 0 0 0
97 97 -3.666709 4.651522 2.979881 0 0 0
98 98 -3.818153 3.320724 3.995364 0 0 0
99 99 -2.208786 2.996765 3.462679 0 0 0
100 100 1.906643 3.183025 3.431671 0 0 0
ITEM: TIMESTEP 
5
ITEM: NUMBER OF ATOMS
100
ITEM: BOX BOUNDS
-5.000000 5.000000
-5.000000 5.000000
-5.000000 5.000000
ITEM: ATOMS id type x y z ix iy iz
1 1 -2.105750 -3.064258 -4.280961 0 0 0
2 2 2.174478 -4.707234 -4.061474 0 0 0
3 3 0.679418 -3.759969 -4.120074 0 0 0
4 4 -3.381026 -1.015361 -4.395882 0 0 0
5 5 -4.239061 -1.170470 -3.851308 0 0 0
6 6 -1.341284 -1.751071 -4.948161 0 0 0
7 7 -1.931619 -1.591001 -3.656512 0 0 0
8 8 1.418556 -2.359536 -4.619364 0 0 0
9 9 1.623815 -1.002515 -3.060336 0 0 0
10 10 -3.228726 0.195393 -3.461189 0 0 0
11 11 -2.311888 1.585071 -4.524805 0 0 0
12 12 1.121572 0.750960 -2.817524 0 0 0
13 13 0.979876 1.639128 -2.970198 0 0 0
14 14 -1.488231 3.230288 -4.403225 0 0 0
15 15 -0.591183 4.223978 -3.372224 0 0 0
16 16 -4.763335 -4.708099 -2.366471 0 0 0
17 17 -3.737013 -3.614337 -1.154418 0 0 0
18 18 -3.890003 -3.837520 -0.226629 0 0 0
19 19 -4.783933 -3.618238 -1.390874 0 0 0
20 20 1.422203 -4.179883 -1.891585 0 0 0
21 21 0.189427 -3.782942 -1.812769 0 0 0
22 22 0.681971 -3.607223 -0.955193 0 0 0
23 23 4.139566 -4.226590 -2.397302 0 0 0
24 24 4.232292 -3.049201 -0.566450 0 0 0
25 25 -4.622024 -2.184695 -0.517990 0 0 0
26 26 -3.909622 -1.006496 -2.107730 0 0 0
27 27 -2.788575 -1.202573 -1.451207 0 0 0
28 28 -1.748707 -1.401135 -1.807998 0 0 0
29 29 1.039110 -1.708602 -2.378523 0 0 0
30 30 1.271867 -1.936955 -1.115032 0 0 0
31 31 1.123984 -1.018877 -1.624361 0 0 0
32 32 3.334869 -2.094096 -1.439144 0 0 0
33 33 3.763990 -0.986828 -0.259045 0 0 0
34 34 -4.105033 0.855724 -0.812934 0 0 0
35 35 -3.201722 1.191022 -1.467285 0 0 0
36 36 -1.624906 1.229533 -1.943678 0 0 0
37 37 -2.486941 0.265385 -1.695772 0 0 0
38 38 -1.031826 1.116040 -1.362162 0 0 0
39 39 -1.549853 1.902375 -1.167997 0 0 0
40 40 -0.960150 1.554322 -2.085063 0 0 0
41 41 1.324753 1.280613 -1.273302 0 0 0
42 42 3.112507 1.414559 -1.393356 0 0 0
43 43 -2.940319 3.905058 -0.609161 0 0 0
44 44 -4.474880 3.592771 -1.369759 0 0 0
45 45 -3.834618 4.378730 -0.928816 0 0 0
46 46 -1.825990 3.419618 -0.386255 0 0 0
47 47 -1.890762 3.584953 -2.255213 0 0 0
48 48 -2.478877 3.491847 -1.412185 0 0 0
49 49 -1.520265 3.711648 -1.014610 0 0 0
50 50 -0.850048 3.828080 -0.022294 0 0 0
51 51 1.037944 3.199603 -1.444973 0 0 0
52 52 4.071473 3.992790 -2.060107 0 0 0
53 53 -4.556818 -4.713549 0.117733 0 0 0
54 54 -1.477814 -3.535122 0.093125 0 0 0
55 55 -0.901408 -3.580083 1.005678 0 0 0
56 56 -1.932300 -3.108909 2.483924 0 0 0
57 57 -1.757315 -3.240674 1.022619 0 0 0
58 58 4.465062 -3.573822 1.393604 0 0 0
59 59 -3.799987 -1.977586 0.190018 0 0 0
60 60 -4.062061 -1.119786 0.743545 0 0 0
61 61 -1.499553 -1.007191 0.825910 0 0 0
62 62 -1.781481 -0.666065 1.417121 0 0 0
63 63 -0.697502 -0.664331 1.284036 0 0 0
64 64 0.458665 -0.964035 0.351498 0 0 0
65 65 1.649830 -1.332311 0.624967 0 0 0
66 66 4.717388 -2.116422 0.596068 0 0 0
67 67 4.596756 -1.363775 0.698243 0 0 0
68 68 3.395805 -0.813771 2.105152 0 0 0
69 69 -3.724546 1.491039 2.409453 0 0 0
70 70 -2.296184 0.925831 0.233832 0 0 0
71 71 -0.770892 1.474737 1.452003 0 0 0
72 72 0.306566 0.316110 1.394224 0 0 0
73 73 0.870226 1.025002 1.856502 0 0 0
74 74 1.197440 0.110087 1.946391 0 0 0
75 75 0.291967 1.389193 1.100438 0 0 0
76 76 -3.229716 2.770139 1.696642 0 0 0
77 77 -4.886034 3.044933 0.081498 0 0 0
78 78 -0.990629 2.818309 0.132855 0 0 0
79 79 0.810713 3.613993 1.450821 0 0 0
80 80 -4.546326 -3.824089 4.288356 0 0 0
81 81 -3.418087 -3.820163 3.218973 0 0 0
82 82 -4.435344 -4.172061 2.780349 0 0 0
83 83 -3.627127 -4.649043 4.240673 0 0 0
84 84 0.037678 -4.587780 2.598716 0 0 0
85 85 4.826211 -3.668396 2.950401 0 0 0
86 86 -3.115286 -1.989722 4.610719 0 0 0
87 87 -0.792115 -1.222407 2.837498 0 0 0
88 88 -1.983226 -1.015521 2.583302 0 0 0
89 89 2.483995 -2.409756 2.555477 0 0 0
90 90 1.500926 -1.267325 4.380949 0 0 0
91 91 -2.672543 0.646820 3.307837 0 0 0
92 92 -4.979012 1.357158 4.725932 0 0 0
93 93 -2.090286 0.076707 4.493680 0 0 0
94 94 -1.692282 0.939437 4.026784 0 0 0
95 95 -2.018115 1.358790 3.573419 0 0 0
96 96 2.024971 1.199989 3.830340 0 0 0
97 97 3.503325 1.020176 3.787942 0 0 0
98 98 -3.055923 3.687459 3.997829 0 0 0
99 99 -4.070082 2.949804 3.251556 0 0 0
100 100 0.347440 4.012314 3.377611 0 0 0
ITEM: TIMESTEP 
6
ITEM: NUMBER OF ATOMS
100
ITEM: BOX BOUNDS
-5.000000 5.000000
-5.000000 5.000000
-5.000000 5.000000
ITEM: ATOMS id type x y z ix iy iz
1 1 1.515820 -3.656796 -3.720382 0 0 0
2 2 0.670863 -2.637088 -3.572509 0 0 0
3 3 3.588037 -4.803105 -4.320619 0 0 0
4 4 -2.687737 -0.730872 -4.792664 0 0 0
5 5 -3.980821 -0.996707 -4.210706 0 0 0
6 6 -1.018199 -0.559199 -3.833744 0 0 0
7 7 2.379929 -0.545488 -2.712257 0 0 0
8 8 2.386427 -2.004650 -4.277133 0 0 0
9 9 0.551465 -1.551290 -3.872237 0 0 0
10 10 -3.006819 0.498405 -4.721958 0 0 0
11 11 -0.731018 1.872198 -4.867333 0 0 0
12 12 1.215851 1.116055 -3.735810 0 0 0
13 13 3.148355 0.490990 -3.132854 0 0 0
14 14 -0.733460 3.139596 -4.935239 0 0 0
15 15 -0.328217 4.428326 -2.625455 0 0 0
16 16 -3.936245 -4.708099 -2.366471 0 0 0
17 17 -3.592726 -2.982701 -1.331620 0 0 0
18 18 -2.909923 -3.614337 -1.154418 0 0 0
19 19 -3.969449 -4.218520 -0.590594 0 0 0
20 20 0.882171 -4.077621 -1.903352 0 0 0
21 21 1.471294 -3.401497 -1.423870 0 0 0
22 22 1.919689 -4.379482 -1.020419 0 0 0
23 23 4.843807 -4.878004 -1.370224 0 0 0
24 24 4.652026 -3.306516 -1.071868 0 0 0
25 25 -3.794934 -2.184695 -0.517990 0 0 0
26 26 -3.474550 -0.999470 -1.942390 0 0 0
27 27 -4.475723 -0.331775 -1.256074 0 0 0
28 28 -0.080944 -1.379138 -1.000780 0 0 0
29 29 -1.343489 -0.364796 -0.022046 0 0 0
30 30 1.866200 -1.708602 -2.378523 0 0 0
31 31 1.682916 -1.945353 -1.161614 0 0 0
32 32 2.307741 -0.428594 -1.376606 0 0 0
33 33 3.995714 -1.216248 -0.659840 0 0 0
34 34 -3.277944 0.855724 -0.812934 0 0 0
35 35 -1.659851 0.265385 -1.695772 0 0 0
36 36 -0.722763 1.902375 -1.167997 0 0 0
37 37 -0.133060 1.554322 -2.085063 0 0 0
38 38 -0.777649 0.827024 -1.298463 0 0 0
39 39 -1.874632 1.191022 -1.467285 0 0 0
40 40 2.167254 1.670683 -1.649544 0 0 0
41 41 1.124295 1.640039 -1.062872 0 0 0
42 42 3.920279 1.643512 -2.404132 0 0 0
43 43 -3.381152 3.294563 -2.213282 0 0 0
44 44 -0.998900 3.419618 -0.386255 0 0 0
45 45 -1.651787 3.491847 -1.412185 0 0 0
46 46 -0.205175 3.938989 -0.073503 0 0 0
47 47 -1.653062 4.282449 -2.323461 0 0 0
48 48 -1.888964 4.745609 -1.172733 0 0 0
49 49 -1.613229 3.905058 -0.609161 0 0 0
50 50 1.734017 4.670801 -1.567798 0 0 0
51 51 1.037580 3.474810 -0.956110 0 0 0
52 52 3.646526 3.855873 -2.083382 0 0 0
53 53 -3.887356 -3.054728 1.661811 0 0 0
54 54 -1.105210 -3.108909 2.483924 0 0 0
55 55 -0.938151 -3.358918 1.465408 0 0 0
56 56 -0.650724 -3.535122 0.093125 0 0 0
57 57 -0.074318 -3.580083 1.005678 0 0 0
58 58 -1.463389 -3.875746 1.514406 0 0 0
59 59 -3.693527 -1.943325 2.135046 0 0 0
60 60 -4.180099 -2.364909 0.378062 0 0 0
61 61 -0.548626 -2.311395 1.144226 0 0 0
62 62 -0.580984 -0.043798 1.257563 0 0 0
63 63 -0.672464 -1.007191 0.825910 0 0 0
64 64 -1.999756 -1.434447 0.323282 0 0 0
65 65 2.281245 -1.088180 1.118549 0 0 0
66 66 2.078477 -2.366148 0.114895 0 0 0
67 67 4.239038 -2.253731 0.823516 0 0 0
68 68 3.924237 -0.816238 2.205085 0 0 0
69 69 -1.372172 0.569240 0.272389 0 0 0
70 70 -1.291799 1.542511 2.375178 0 0 0
71 71 0.993124 1.482872 2.080173 0 0 0
72 72 1.475644 1.000050 0.685683 0 0 0
73 73 1.938047 0.063417 0.898799 0 0 0
74 74 0.767441 1.202769 1.198182 0 0 0
75 75 3.402232 0.099970 1.668513 0 0 0
76 76 -3.658756 4.367161 0.749975 0 0 0
77 77 -1.622204 2.529496 1.414878 0 0 0
78 78 1.001905 3.450095 1.194600 0 0 0
79 79 0.600018 2.593029 0.154789 0 0 0
80 80 -2.590997 -3.820163 3.218973 0 0 0
81 81 -2.749763 -4.395139 4.279823 0 0 0
82 82 -3.967253 -3.194284 4.501272 0 0 0
83 83 -3.608254 -4.172061 2.780349 0 0 0
84 84 1.349630 -4.832649 4.841581 0 0 0
85 85 4.584637 -3.802277 3.714919 0 0 0
86 86 -0.061633 -1.460941 4.110572 0 0 0
87 87 -1.423486 -0.378052 4.444466 0 0 0
88 88 1.074416 -1.909836 3.182597 0 0 0
89 89 3.287044 -2.400491 3.571823 0 0 0
90 90 3.739439 -0.480009 4.676480 0 0 0
91 91 -3.658915 0.987156 4.009834 0 0 0
92 92 -0.994892 0.530660 4.838475 0 0 0
93 93 -0.393488 2.097451 3.193395 0 0 0
94 94 -1.359477 1.536703 4.034737 0 0 0
95 95 -1.459379 0.399996 3.742489 0 0 0
96 96 4.035566 0.174036 3.778200 0 0 0
97 97 3.427483 1.844193 4.070118 0 0 0
98 98 -4.092650 4.062272 3.726593 0 0 0
99 99 -1.920649 4.476061 4.420587 0 0 0
100 100 0.831814 4.969078 3.870543 0 0 0
ITEM: TIMESTEP 
7
ITEM: NUMBER OF ATOMS
100
ITEM: BOX BOUNDS
-5.000000 5.000000
-5.000000 5.000000
-5.000000 5.000000
ITEM: ATOMS id type x y z ix iy iz
1 1 -3.376420 -4.058216 -4.336370 0 0 0
2 2 0.788027 -4.971123 -3.003060 0 0 0
3 3 0.378626 -3.020521 -3.892667 0 0 0
4 4 2.362183 -4.838171 -4.157714 0 0 0
5 5 -4.446693 -0.941357 -3.860961 0 0 0
6 6 -3.210677 -0.648447 -4.298029 0 0 0
7 7 -1.423486 -0.378052 -4.469846 0 0 0
8 8 1.477543 -1.922416 -3.594315 0 0 0
9 9 0.653248 -1.438801 -2.998949 0 0 0
10 10 -3.014729 1.479084 -4.164231 0 0 0
11 11 -2.002455 1.945810 -4.411412 0 0 0